LAMMPS (22 Jul 2025 - Update 2)
OMP_NUM_THREADS environment is not set. Defaulting to 1 thread.
  using 1 OpenMP thread(s) per MPI task
Lattice spacing in x,y,z = 4.52 4.52 4.52
Created orthogonal box = (0 0 0) to (45.2 45.2 45.2)
  2 by 2 by 4 MPI processor grid
Created 4000 atoms
  using lattice units in orthogonal box = (0 0 0) to (45.2 45.2 45.2)
  create_atoms CPU = 0.033 seconds
Neighbor list info ...
  update: every = 1 steps, delay = 0 steps, check = yes
  max neighbors/atom: 2000, page size: 100000
  master list distance cutoff = 10.3
  ghost atom cutoff = 10.3
  binsize = 5.15, bins = 9 9 9
  1 neighbor lists, perpetual/occasional/extra = 1 0 0
  (1) pair eam/alloy, perpetual
      attributes: half, newton on
      pair build: half/bin/atomonly/newton
      stencil: half/bin/3d
      bin: standard
Setting up cg style minimization ...
  Unit style    : metal
  Current step  : 0
Per MPI rank memory allocation (min/avg/max) = 4.562 | 4.562 | 4.562 Mbytes
   Step          Temp          E_pair         E_mol          TotEng         Press     
         0   293           -3357.4993      0             -3206.0442     -18978.037    
         1   293           -3357.4993      0             -3206.0442     -18978.037    
Loop time of 0.118884 on 16 procs for 1 steps with 4000 atoms

105.0% CPU use with 16 MPI tasks x 1 OpenMP threads

Minimization stats:
  Stopping criterion = linesearch alpha is zero
  Energy initial, next-to-last, final = 
     -3357.49925183575  -3357.49925183575  -3357.49925183575
  Force two-norm initial, final = 1.1529206e-13 1.1529206e-13
  Force max component initial, final = 3.6186332e-15 3.6186332e-15
  Final line search alpha, max atom move = 0.5 1.8093166e-15
  Iterations, force evaluations = 1 2

MPI task timing breakdown:
Section |  min time  |  avg time  |  max time  |%varavg| %total
---------------------------------------------------------------
Pair    | 0.027632   | 0.034235   | 0.039524   |   1.7 | 28.80
Neigh   | 0          | 0          | 0          |   0.0 |  0.00
Comm    | 0.025949   | 0.034193   | 0.04069    |   2.5 | 28.76
Output  | 0          | 0          | 0          |   0.0 |  0.00
Modify  | 0          | 0          | 0          |   0.0 |  0.00
Other   |            | 0.05046    |            |       | 42.44

Nlocal:            250 ave         250 max         250 min
Histogram: 16 0 0 0 0 0 0 0 0 0
Nghost:           2277 ave        2277 max        2277 min
Histogram: 16 0 0 0 0 0 0 0 0 0
Neighs:          25000 ave       25000 max       25000 min
Histogram: 16 0 0 0 0 0 0 0 0 0

Total # of neighbors = 400000
Ave neighs/atom = 100
Neighbor list builds = 0
Dangerous builds = 0
Neighbor list info ...
  update: every = 1 steps, delay = 0 steps, check = yes
  max neighbors/atom: 2000, page size: 100000
  master list distance cutoff = 10.3
  ghost atom cutoff = 10.3
  binsize = 5.15, bins = 9 9 9
  2 neighbor lists, perpetual/occasional/extra = 1 1 0
  (1) pair eam/alloy, perpetual
      attributes: half, newton on
      pair build: half/bin/atomonly/newton
      stencil: half/bin/3d
      bin: standard
  (2) compute rdf, occasional, copy from (1)
      attributes: half, newton on
      pair build: copy
      stencil: none
      bin: none
Setting up Verlet run ...
  Unit style    : metal
  Current step  : 1
  Time step     : 0.001
Per MPI rank memory allocation (min/avg/max) = 3.937 | 3.937 | 3.937 Mbytes
   Step          Temp          Press          PotEng         KinEng         TotEng         Volume        Density    
         1   293           -18978.037     -3357.4993      151.45502     -3206.0442      92345.408      5.014987     
       100   216.73259     -20276.325     -3292.5124      112.03153     -3180.4809      92345.408      5.014987     
       200   1399.2014      54906.377     -3321.4274      723.26302     -2598.1644      92345.408      5.014987     
       300   8774.4542      91213.341     -2904.651       4535.6147      1630.9637      92345.408      5.014987     
       400   19657.451     -150815.25     -2612.138       10161.159      7549.0209      92345.408      5.014987     
       500   24700.708      201799.76     -2719.0806      12768.076      10048.995      92345.408      5.014987     
       600   21212.963      265508.5      -2869.6795      10965.221      8095.5412      92345.408      5.014987     
       700   17780.425      32021.971     -3343.0634      9190.9031      5847.8397      92345.408      5.014987     
       800   18436.55       143938.79     -3432.4589      9530.0613      6097.6023      92345.408      5.014987     
       900   17829.988      119271.16     -3299.3158      9216.5225      5917.2067      92345.408      5.014987     
      1000   16127.017      171104.35     -3514.7747      8336.2377      4821.463       92345.408      5.014987     
      1100   15631.316      125327.95     -3466.3098      8080.0042      4613.6944      92345.408      5.014987     
      1200   15083.351      29872.402     -3649.0093      7796.755       4147.7457      92345.408      5.014987     
      1300   14095.292      69955.312     -3641.3204      7286.0162      3644.6959      92345.408      5.014987     
      1400   14889.623      199972.82     -3727.9599      7696.6146      3968.6547      92345.408      5.014987     
      1500   13434.496      190594.13     -3734.0274      6944.4433      3210.4159      92345.408      5.014987     
      1600   12335.41      -30330.535     -4035.84        6376.3129      2340.4729      92345.408      5.014987     
      1700   12120.874      122468.62     -3814.0869      6265.4171      2451.3302      92345.408      5.014987     
      1800   12252.457     -63111.537     -3814.2675      6333.4336      2519.1661      92345.408      5.014987     
      1900   12608.815      46890.535     -3721.3294      6517.6392      2796.3098      92345.408      5.014987     
      2000   11483.695     -84510.036     -3849.5045      5936.052       2086.5475      92345.408      5.014987     
      2100   12833.088      27103.413     -3523.8776      6633.5686      3109.691       92345.408      5.014987     
      2200   11680.103     -70022.828     -3696.1393      6037.5776      2341.4383      92345.408      5.014987     
      2300   11478.195     -97825.544     -3810.6539      5933.2088      2122.5548      92345.408      5.014987     
      2400   11807.494      39879.317     -3858.3516      6103.4273      2245.0756      92345.408      5.014987     
      2500   11836.544     -72445.53      -3863.876       6118.4434      2254.5673      92345.408      5.014987     
      2600   12480.374      15065.09      -3849.1139      6451.2468      2602.1329      92345.408      5.014987     
      2700   10576.905      198904.09     -3856.9079      5467.3221      1610.4142      92345.408      5.014987     
      2800   11032.027     -20800.664     -3878.7283      5702.5795      1823.8511      92345.408      5.014987     
      2900   10324.243      66102.976     -4183.9389      5336.7178      1152.779       92345.408      5.014987     
      3000   10674.605     -114918.64     -3923.6385      5517.8243      1594.1858      92345.408      5.014987     
      3100   10981.454      143573.91     -3848.3208      5676.4377      1828.1169      92345.408      5.014987     
      3200   10113.978     -68946.994     -4003.1168      5228.0299      1224.913       92345.408      5.014987     
      3300   11181.747     -62807.398     -4179.9692      5779.9717      1600.0025      92345.408      5.014987     
      3400   9253.4472      43332.536     -4314.6691      4783.2116      468.54249      92345.408      5.014987     
      3500   10600.218     -124390.68     -4133.0779      5479.3725      1346.2945      92345.408      5.014987     
      3600   9992.0654     -62998.735     -3970.2262      5165.0117      1194.7855      92345.408      5.014987     
      3700   9395.3574      134914.5      -4168.0746      4856.5666      688.49195      92345.408      5.014987     
      3800   9493.679      -79647.885     -4095.1632      4907.3901      812.22689      92345.408      5.014987     
      3900   9893.0179     -56782.583     -4021.6143      5113.813       1092.1987      92345.408      5.014987     
      4000   9510.5308      12099.232     -4159.5584      4916.1011      756.54262      92345.408      5.014987     
      4100   9122.3465      172059.56     -4360.1188      4715.4441      355.32531      92345.408      5.014987     
      4200   8679.4263      15799.66      -4460.763       4486.4937      25.730709      92345.408      5.014987     
      4300   9264.1104     -54834.039     -4206.1443      4788.7235      582.57926      92345.408      5.014987     
      4400   9660.8136     -52201.478     -4042.2486      4993.7839      951.53529      92345.408      5.014987     
      4500   9075.2501     -133206.1      -4213.8444      4691.0995      477.25508      92345.408      5.014987     
      4600   9169.1462      112332.62     -3943.5403      4739.6355      796.09512      92345.408      5.014987     
      4700   9927.3468     -94184.371     -4189.1276      5131.558       942.43038      92345.408      5.014987     
      4800   9391.8723      6241.2674     -4282.1849      4854.7651      572.58027      92345.408      5.014987     
      4900   8953.1193     -197940.87     -4380.7024      4627.9687      247.26629      92345.408      5.014987     
      5000   8744.3241     -143680.66     -4488.3956      4520.0401      31.64446       92345.408      5.014987     
      5001   8896.4775     -36105.722     -4518.6735      4598.6899      80.016462      92345.408      5.014987     
Loop time of 237.954 on 16 procs for 5000 steps with 4000 atoms

Performance: 1.815 ns/day, 13.220 hours/ns, 21.012 timesteps/s, 84.050 katom-step/s
103.9% CPU use with 16 MPI tasks x 1 OpenMP threads

MPI task timing breakdown:
Section |  min time  |  avg time  |  max time  |%varavg| %total
---------------------------------------------------------------
Pair    | 85.425     | 87.77      | 89.593     |  12.5 | 36.89
Neigh   | 0.81712    | 1.0692     | 1.3272     |  15.9 |  0.45
Comm    | 84.988     | 87.499     | 90.688     |  17.4 | 36.77
Output  | 1.4602     | 1.4946     | 1.5326     |   1.3 |  0.63
Modify  | 28.379     | 31.933     | 34.709     |  32.0 | 13.42
Other   |            | 28.19      |            |       | 11.85

Nlocal:            250 ave         261 max         232 min
Histogram: 1 1 1 0 5 0 0 0 5 3
Nghost:        2321.38 ave        2350 max        2304 min
Histogram: 2 3 3 2 1 2 1 1 0 1
Neighs:        24709.8 ave       26657 max       22012 min
Histogram: 1 1 2 0 3 1 0 2 4 2

Total # of neighbors = 395357
Ave neighs/atom = 98.83925
Neighbor list builds = 548
Dangerous builds = 0
Setting up Verlet run ...
  Unit style    : metal
  Current step  : 5001
  Time step     : 0.001
Per MPI rank memory allocation (min/avg/max) = 3.937 | 3.938 | 3.938 Mbytes
   Step          Temp          Press          PotEng         KinEng         TotEng         Volume        Density    
      5001   8896.4775     -36105.722     -4518.6735      4598.6899      80.016462      92345.408      5.014987     
      5100   23892.097      267152.96     -2996.4846      12350.096      9353.611       92345.408      5.014987     
      5200   22934.164      52139.156     -2852.6305      11854.929      9002.2984      92345.408      5.014987     
      5300   20169.042      187610.02     -2991.8796      10425.606      7433.7262      92345.408      5.014987     
      5400   22123.605      85026.131     -2787.8584      11435.942      8648.0833      92345.408      5.014987     
      5500   18280.511     -55583.875     -3299.7011      9449.4029      6149.7019      92345.408      5.014987     
      5600   16703.464     -18779.864     -3200.7848      8634.2094      5433.4247      92345.408      5.014987     
      5700   16496.017     -98119.672     -3199.3966      8526.9779      5327.5812      92345.408      5.014987     
      5800   14349.776      112772.35     -3440.2223      7417.5615      3977.3393      92345.408      5.014987     
      5900   13930.96       67648.626     -3753.9424      7201.0708      3447.1284      92345.408      5.014987     
      6000   13605.607     -103435.58     -3786.5003      7032.8923      3246.3921      92345.408      5.014987     
      6100   12127.016      79226.476     -3785.088       6268.5919      2483.5039      92345.408      5.014987     
      6200   12725.599      226032.01     -3730.2628      6578.006       2847.7432      92345.408      5.014987     
      6300   11561.64       114093.64     -3737.5377      5976.3424      2238.8047      92345.408      5.014987     
      6400   11171.774     -40129.407     -3862.6412      5774.8165      1912.1752      92345.408      5.014987     
      6500   11725.624      113196.77     -3727.6906      6061.1078      2333.4172      92345.408      5.014987     
      6600   10931.891      5346.3271     -3841.7323      5650.818       1809.0857      92345.408      5.014987     
      6700   11166.027     -76383.461     -3875.4116      5771.8456      1896.434       92345.408      5.014987     
      6800   10829.476      112692.91     -4023.287       5597.8785      1574.5915      92345.408      5.014987     
      6900   10467.679      86763.664     -3930.9812      5410.8616      1479.8804      92345.408      5.014987     
      7000   11427.895      114543.33     -3802.0386      5907.2084      2105.1698      92345.408      5.014987     
      7100   11441.653     -1976.5933     -4100.8158      5914.3197      1813.5039      92345.408      5.014987     
      7200   10088.211     -268685.14     -4010.4609      5214.7104      1204.2495      92345.408      5.014987     
      7300   9922.2702     -6506.1004     -4127.082       5128.9338      1001.8517      92345.408      5.014987     
      7400   10375.225      79923.733     -3941.1958      5363.0711      1421.8753      92345.408      5.014987     
      7500   10042.79       39810.552     -4060.3563      5191.2316      1130.8753      92345.408      5.014987     
      7600   9531.1187      61122.184     -4075.9266      4926.7431      850.81656      92345.408      5.014987     
      7700   9161.1683      156274.95     -4230.5078      4735.5116      505.00374      92345.408      5.014987     
      7800   8408.6048     -131621.14     -4186.3281      4346.503       160.17488      92345.408      5.014987     
      7900   8799.4844      91287.639     -4339.5741      4548.5531      208.97902      92345.408      5.014987     
      8000   9264.4561     -16052.03      -4357.152       4788.9022      431.75019      92345.408      5.014987     
      8100   9021.4168     -36694.766     -4217.7167      4663.2724      445.55578      92345.408      5.014987     
      8200   8507.8029     -40345.14      -4257.6801      4397.7796      140.09956      92345.408      5.014987     
      8300   7345.9776      14080.341     -4419.8591      3797.219      -622.64012      92345.408      5.014987     
      8400   7977.953      -1837.2002     -4306.0821      4123.8942     -182.18786      92345.408      5.014987     
      8500   8213.737      -18700.973     -4402.0963      4245.7736     -156.3227       92345.408      5.014987     
      8600   8388.8156     -87917.082     -4480.9713      4336.2737     -144.69753      92345.408      5.014987     
      8700   8613.4178     -37996.295     -4309.0551      4452.3732      143.31811      92345.408      5.014987     
      8800   7081.0964     -203602.45     -4416.8784      3660.2989     -756.57953      92345.408      5.014987     
      8900   8105.8873     -184713.24     -4269.2739      4190.0249     -79.248972      92345.408      5.014987     
      9000   7882.8661     -59777.607     -4429.4077      4074.7427     -354.665        92345.408      5.014987     
      9100   7473.5761      47198.066     -4497.9511      3863.1761     -634.77506      92345.408      5.014987     
      9200   7837.6722     -94812.561     -4559.2909      4051.3815     -507.90944      92345.408      5.014987     
      9300   7378.8295      1080.3126     -4593.2143      3814.2005     -779.01383      92345.408      5.014987     
      9400   6542.4136      17272.358     -4542.0994      3381.8476     -1160.2517      92345.408      5.014987     
      9500   6851.2132      19285.611     -4384.4069      3541.4697     -842.93718      92345.408      5.014987     
      9600   7494.7355     -21495.957     -4610.9473      3874.1136     -736.83361      92345.408      5.014987     
      9700   7182.3481     -81387.651     -4799.7695      3712.637      -1087.1325      92345.408      5.014987     
      9800   7238.4552     -71540.994     -4767.7732      3741.6394     -1026.1338      92345.408      5.014987     
      9900   6952.4966      8989.7779     -4734.467       3593.8242     -1140.6428      92345.408      5.014987     
     10000   7002.3286     -11681.459     -4774.6107      3619.5829     -1155.0278      92345.408      5.014987     
     10100   5762.3912     -169477.08     -4533.0442      2978.6453     -1554.3989      92345.408      5.014987     
     10200   7087.2065     -19609.623     -4773.3322      3663.4572     -1109.8749      92345.408      5.014987     
     10300   6561.9569      29879.516     -4863.3502      3391.9498     -1471.4004      92345.408      5.014987     
     10400   5706.006      -99263.676     -4916.6797      2949.4991     -1967.1806      92345.408      5.014987     
     10500   5832.3497     -27572.717     -5009.5383      3014.8076     -1994.7307      92345.408      5.014987     
     10600   7060.8827      66950.433     -4906.0581      3649.8502     -1256.2079      92345.408      5.014987     
     10700   6222.2781     -86720.481     -4786.7951      3216.366      -1570.4291      92345.408      5.014987     
     10800   6053.1787     -267482.44     -4805.2687      3128.9566     -1676.3121      92345.408      5.014987     
     10900   7027.4777     -23273.335     -4809.2863      3632.5828     -1176.7035      92345.408      5.014987     
     11000   5924.089       7971.6091     -4871.6567      3062.2287     -1809.428       92345.408      5.014987     
     11100   5223.5084     -11507.164     -4983.8812      2700.0906     -2283.7905      92345.408      5.014987     
     11200   5938.7746     -56627.711     -4902.4142      3069.8198     -1832.5943      92345.408      5.014987     
     11300   6034.0434     -338413.67     -4982.0663      3119.0653     -1863.001       92345.408      5.014987     
     11400   5606.0258     -210583.87     -4967.3979      2897.8182     -2069.5797      92345.408      5.014987     
     11500   5550.0311     -170053.71     -4988.786       2868.8739     -2119.9121      92345.408      5.014987     
     11600   5450.3235     -171027.75     -5087.0566      2817.3339     -2269.7227      92345.408      5.014987     
     11700   5013.7919      10555.118     -5112.8148      2591.6858     -2521.129       92345.408      5.014987     
     11800   4971.884      -9013.4999     -5128.2204      2570.0231     -2558.1973      92345.408      5.014987     
     11900   5178.9288     -133003.56     -5065.2616      2677.0469     -2388.2147      92345.408      5.014987     
     12000   4917.953      -176368.82     -5366.9681      2542.1456     -2824.8225      92345.408      5.014987     
     12100   4587.3229      4776.9504     -5409.5793      2371.2391     -3038.3401      92345.408      5.014987     
     12200   4937.1976     -251.09023     -5418.1552      2552.0933     -2866.0619      92345.408      5.014987     
     12300   4581.7409      25665.593     -5464.7644      2368.3537     -3096.4106      92345.408      5.014987     
     12400   4775.3659      11551.192     -5447.239       2468.4407     -2978.7984      92345.408      5.014987     
     12500   4397.8166      96768.705     -5542.0336      2273.2812     -3268.7524      92345.408      5.014987     
     12600   5036.44       -110146.5      -5539.5994      2603.3928     -2936.2066      92345.408      5.014987     
     12700   5293.6711     -37719.791     -5572.4954      2736.3585     -2836.1368      92345.408      5.014987     
     12800   4698.5973     -105738        -5570.8475      2428.7581     -3142.0894      92345.408      5.014987     
     12900   4675.007      -109091.47     -5385.0735      2416.564      -2968.5094      92345.408      5.014987     
     13000   4410.1217      47146.768     -5588.1269      2279.6418     -3308.485       92345.408      5.014987     
     13100   4652.1084     -117507.25     -5699.3184      2404.7275     -3294.591       92345.408      5.014987     
     13200   3926.632      -20460.021     -5782.2951      2029.7205     -3752.5745      92345.408      5.014987     
     13300   4451.4392      25144.549     -5747.4592      2300.9993     -3446.4599      92345.408      5.014987     
     13400   4437.1039     -36878.742     -5747.8315      2293.5892     -3454.2423      92345.408      5.014987     
     13500   3990.5314     -196619.93     -5705.3541      2062.7509     -3642.6032      92345.408      5.014987     
     13600   3954.2585     -66926.361     -5801.3214      2044.001      -3757.3204      92345.408      5.014987     
     13700   3965.7871     -126481.72     -5662.7797      2049.9602     -3612.8194      92345.408      5.014987     
     13800   4346.6725     -86367.423     -5730.3441      2246.8442     -3483.4999      92345.408      5.014987     
     13900   3241.4725     -126100.7      -6144.2226      1675.5538     -4468.6688      92345.408      5.014987     
     14000   3514.8222     -12507.744     -5968.3531      1816.8514     -4151.5018      92345.408      5.014987     
     14100   3677.7727     -59719.356     -5973.9017      1901.0823     -4072.8194      92345.408      5.014987     
     14200   3929.2871     -60897.416     -6006.6382      2031.093      -3975.5453      92345.408      5.014987     
     14300   3856.6447      12871.665     -6163.8275      1993.5433     -4170.2841      92345.408      5.014987     
     14400   3374.6874     -105900.86     -6099.7932      1744.4141     -4355.3791      92345.408      5.014987     
     14500   3824.8161     -120668.76     -6218.8458      1977.0908     -4241.755       92345.408      5.014987     
     14600   2929.876       50680.398     -6376.6476      1514.4861     -4862.1615      92345.408      5.014987     
     14700   4101.353      -19496.276     -6173.0032      2120.0358     -4052.9674      92345.408      5.014987     
     14800   3544.2816      39469.875     -6258.2397      1832.0793     -4426.1604      92345.408      5.014987     
     14900   3326.1172     -68481.486     -6237.1806      1719.3076     -4517.8729      92345.408      5.014987     
     15000   2910.8276     -29208.208     -6331.2848      1504.6397     -4826.645       92345.408      5.014987     
     15001   2949.0669     -178483.54     -6342.6215      1524.4061     -4818.2154      92345.408      5.014987     
Loop time of 490.938 on 16 procs for 10000 steps with 4000 atoms

Performance: 1.760 ns/day, 13.637 hours/ns, 20.369 timesteps/s, 81.477 katom-step/s
103.9% CPU use with 16 MPI tasks x 1 OpenMP threads

MPI task timing breakdown:
Section |  min time  |  avg time  |  max time  |%varavg| %total
---------------------------------------------------------------
Pair    | 180.52     | 183.99     | 187.48     |  14.7 | 37.48
Neigh   | 1.4649     | 1.9233     | 2.5956     |  25.0 |  0.39
Comm    | 173.81     | 179.51     | 184.07     |  23.4 | 36.56
Output  | 3.0403     | 3.1037     | 3.2558     |   2.8 |  0.63
Modify  | 58.036     | 64.967     | 70.34      |  42.9 | 13.23
Other   |            | 57.44      |            |       | 11.70

Nlocal:            250 ave         284 max         199 min
Histogram: 1 2 0 1 2 1 1 3 2 3
Nghost:        2320.06 ave        2410 max        2233 min
Histogram: 3 2 1 2 0 0 2 1 4 1
Neighs:          25171 ave       30582 max       17754 min
Histogram: 1 2 1 1 1 1 2 4 0 3

Total # of neighbors = 402736
Ave neighs/atom = 100.684
Neighbor list builds = 980
Dangerous builds = 0
Setting up Verlet run ...
  Unit style    : metal
  Current step  : 15001
  Time step     : 0.001
Per MPI rank memory allocation (min/avg/max) = 3.938 | 3.938 | 3.938 Mbytes
   Step          Temp          Press          PotEng         KinEng         TotEng         Volume        Density    
     15001   2949.0669     -178483.54     -6342.6215      1524.4061     -4818.2154      92345.408      5.014987     
     15100   12740.224      165607.67     -5041.8644      6585.5658      1543.7014      92345.408      5.014987     
     15200   10002.602      49002.794     -4801.0151      5170.4581      369.443        92345.408      5.014987     
     15300   9320.5295      108421.4      -4889.7777      4817.8872     -71.890513      92345.408      5.014987     
     15400   8065.9743      131266.17     -4956.8835      4169.3934     -787.49013      92345.408      5.014987     
     15500   7246.6036      99026.769     -5117.501       3745.8514     -1371.6496      92345.408      5.014987     
     15600   7439.6562     -73875.064     -5209.0988      3845.6425     -1363.4563      92345.408      5.014987     
     15700   7121.9993     -82990.897     -5120.3248      3681.4421     -1438.8827      92345.408      5.014987     
     15800   7360.8085     -39995.005     -4990.5255      3804.8852     -1185.6403      92345.408      5.014987     
     15900   6004.1532     -86204.877     -5257.3383      3103.6148     -2153.7235      92345.408      5.014987     
     16000   7266.1892      108178.9      -5328.366       3755.9754     -1572.3906      92345.408      5.014987     
     16100   6174.4258     -13951.212     -5252.9786      3191.6306     -2061.348       92345.408      5.014987     
     16200   5964.408       48940.977     -5325.1517      3083.07       -2242.0817      92345.408      5.014987     
     16300   4751.8571      82616.869     -5416.4936      2456.2887     -2960.2049      92345.408      5.014987     
     16400   6164.3556     -88430.414     -5330.2159      3186.4252     -2143.7907      92345.408      5.014987     
     16500   5641.4727     -76420.669     -5440.5058      2916.1411     -2524.3647      92345.408      5.014987     
     16600   5343.342       89644.181     -5518.6433      2762.034      -2756.6093      92345.408      5.014987     
     16700   4928.2107      59907.137     -5406.8893      2547.4479     -2859.4414      92345.408      5.014987     
     16800   4344.2052     -84841.86      -5602.9669      2245.5688     -3357.398       92345.408      5.014987     
     16900   5092.5736     -81805.08      -5454.145       2632.4089     -2821.7361      92345.408      5.014987     
     17000   5182.01       -89898.086     -5506.3676      2678.6396     -2827.728       92345.408      5.014987     
     17100   4496.4691      72353.245     -5661.5183      2324.2758     -3337.2426      92345.408      5.014987     
     17200   3835.4052     -67055.858     -5738.7801      1982.5643     -3756.2157      92345.408      5.014987     
     17300   4270.5013     -74327.818     -5721.4508      2207.4705     -3513.9803      92345.408      5.014987     
WARNING: A per-atom density exceeded rhomax of EAM potential table - a linear extrapolation to the energy was made (src/MANYBODY/pair_eam.cpp:335)
     17400   4762.684      -16894.803     -5458.4004      2461.8853     -2996.5152      92345.408      5.014987     
     17500   3687.445       85175.835     -5805.6565      1906.0821     -3899.5744      92345.408      5.014987     
     17600   3778.8164     -195104.76     -5875.3067      1953.313      -3921.9938      92345.408      5.014987     
     17700   4545.7799      5130.6657     -5741.6942      2349.7651     -3391.9291      92345.408      5.014987     
     17800   4204.2999      48243.949     -5965.2728      2173.2502     -3792.0226      92345.408      5.014987     
     17900   3768.6311     -137515.13     -5993.9963      1948.0481     -4045.9482      92345.408      5.014987     
     18000   4413.865      -68690.328     -6018.3528      2281.5768     -3736.776       92345.408      5.014987     
     18100   3578.9194      24321.942     -6083.5208      1849.9839     -4233.5369      92345.408      5.014987     
     18200   3778.8239      64773.483     -6064.6376      1953.3169     -4111.3208      92345.408      5.014987     
     18300   4089.9505     -156381.07     -6017.0303      2114.1417     -3902.8886      92345.408      5.014987     
     18400   3840.7266     -25513.899     -6175.1065      1985.315      -4189.7915      92345.408      5.014987     
     18500   4763.8166      14635.121     -6043.7401      2462.4707     -3581.2694      92345.408      5.014987     
     18600   3598.1457     -87805.888     -6092.1008      1859.9222     -4232.1785      92345.408      5.014987     
     18700   4377.0366      43244.193     -6155.0555      2262.5398     -3892.5157      92345.408      5.014987     
     18800   4580.5714     -62122.725     -6260.3219      2367.7492     -3892.5726      92345.408      5.014987     
     18900   3781.1861     -243097.87     -6392.3587      1954.5379     -4437.8207      92345.408      5.014987     
     19000   4277.5666     -90259.812     -6296.4604      2211.1226     -4085.3378      92345.408      5.014987     
     19100   3596.4351     -9570.6232     -6247.5689      1859.038      -4388.5309      92345.408      5.014987     
     19200   3834.2429     -24367.926     -6295.0174      1981.9636     -4313.0538      92345.408      5.014987     
     19300   3479.1073      59504.036     -6499.8332      1798.3899     -4701.4432      92345.408      5.014987     
     19400   2972.8346     -109045.1      -6580.5469      1536.6919     -5043.855       92345.408      5.014987     
     19500   3246.1698      2606.3794     -6554.9517      1677.9819     -4876.9697      92345.408      5.014987     
     19600   3680.067      -101326.04     -6531.0935      1902.2683     -4628.8251      92345.408      5.014987     
     19700   3557.3645     -20052.603     -6676.2862      1838.842      -4837.4442      92345.408      5.014987     
     19800   3618.5232     -127647.28     -6724.4089      1870.4556     -4853.9533      92345.408      5.014987     
     19900   3380.0008     -88742.834     -6625.1625      1747.1607     -4878.0018      92345.408      5.014987     
     20000   2968.4149     -79452.063     -6648.0933      1534.4073     -5113.6861      92345.408      5.014987     
     20100   3639.0472     -60368.43      -6696.1622      1881.0647     -4815.0975      92345.408      5.014987     
     20200   3302.2504     -4731.8189     -6827.8986      1706.9706     -5120.9279      92345.408      5.014987     
     20300   3451.1712     -16440.505     -6909.5454      1783.9494     -5125.596       92345.408      5.014987     
     20400   3019.1968     -11772.345     -6669.1001      1560.657      -5108.443       92345.408      5.014987     
     20500   3304.254      -92793.165     -6788.3914      1708.0063     -5080.3851      92345.408      5.014987     
     20600   3229.8523     -21550.47      -6738.9738      1669.5472     -5069.4266      92345.408      5.014987     
     20700   3327.5154     -97766.624     -6848.6987      1720.0304     -5128.6684      92345.408      5.014987     
     20800   2925.5288     -24805.589     -6878.7839      1512.239      -5366.545       92345.408      5.014987     
     20900   3281.7346     -50106.091     -6860.5831      1696.3658     -5164.2173      92345.408      5.014987     
     21000   2596.8426      63116.388     -6996.7366      1342.3373     -5654.3993      92345.408      5.014987     
     21100   3467.2495     -103443.65     -6973.1428      1792.2605     -5180.8823      92345.408      5.014987     
     21200   2508.0549     -34241.701     -7060.3707      1296.442      -5763.9288      92345.408      5.014987     
     21300   3157.3024     -108878.99     -7038.0228      1632.0453     -5405.9775      92345.408      5.014987     
     21400   2660.5434     -15736.893     -7162.9641      1375.265      -5787.6991      92345.408      5.014987     
     21500   2594.461      -24124.934     -7168.1985      1341.1063     -5827.0922      92345.408      5.014987     
     21600   3088.7054     -166666.89     -7162.0339      1596.5868     -5565.4471      92345.408      5.014987     
     21700   2788.2482     -245727.51     -7147.5107      1441.2771     -5706.2337      92345.408      5.014987     
     21800   2829.0863      12776.758     -7167.5301      1462.3867     -5705.1434      92345.408      5.014987     
     21900   2644.4274     -26673.341     -7312.181       1366.9345     -5945.2465      92345.408      5.014987     
     22000   3542.3859     -133671.26     -7132.3501      1831.0994     -5301.2507      92345.408      5.014987     
     22100   2750.647      -37441.418     -7241.2462      1421.8406     -5819.4056      92345.408      5.014987     
     22200   2608.1616     -21505.221     -7276.3743      1348.1882     -5928.1861      92345.408      5.014987     
     22300   2427.911      -119489.4      -7395.0127      1255.0147     -6139.998       92345.408      5.014987     
     22400   2642.6533      76166         -7261.5246      1366.0174     -5895.5072      92345.408      5.014987     
     22500   3051.2305     -60494.032     -7374.245       1577.2156     -5797.0294      92345.408      5.014987     
     22600   2638.3949     -29737.335     -7376.9662      1363.8162     -6013.15        92345.408      5.014987     
     22700   2610.9678     -52833.146     -7402.338       1349.6388     -6052.6991      92345.408      5.014987     
     22800   3295.6703     -1130.4321     -7398.1788      1703.5693     -5694.6096      92345.408      5.014987     
     22900   3448.9989     -21746.369     -7376.9208      1782.8266     -5594.0942      92345.408      5.014987     
     23000   2818.5168      74355.224     -7313.3732      1456.9232     -5856.4499      92345.408      5.014987     
     23100   2914.1599     -46105.648     -7516.2897      1506.3622     -6009.9275      92345.408      5.014987     
     23200   2807.6014     -144418.22     -7558.2646      1451.2809     -6106.9837      92345.408      5.014987     
     23300   3023.39        44462.261     -7578.2674      1562.8245     -6015.4429      92345.408      5.014987     
     23400   2564.4176      38353.375     -7407.9441      1325.5765     -6082.3676      92345.408      5.014987     
     23500   2888.6528     -134375.94     -7594.3455      1493.1774     -6101.1681      92345.408      5.014987     
     23600   2011.6256      30204.468     -7616.6423      1039.832      -6576.8102      92345.408      5.014987     
     23700   2534.4927      48519.793     -7661.3557      1310.108      -6351.2477      92345.408      5.014987     
     23800   2443.3275      19209.13      -7724.0231      1262.9837     -6461.0394      92345.408      5.014987     
     23900   2672.3987      69098.359     -7489.5619      1381.3932     -6108.1687      92345.408      5.014987     
     24000   2496.3259      40661.741     -7650.4635      1290.3791     -6360.0844      92345.408      5.014987     
     24100   2427.9758     -53180.356     -7716.7473      1255.0482     -6461.6992      92345.408      5.014987     
     24200   2393.521      -35311.952     -7772.057       1237.2381     -6534.8189      92345.408      5.014987     
     24300   2326.3439     -222903.85     -7786.7063      1202.5135     -6584.1928      92345.408      5.014987     
     24400   2515.0178      9416.183      -7752.3472      1300.0411     -6452.3061      92345.408      5.014987     
     24500   2286.0006     -37741.764     -7838.2361      1181.6596     -6656.5765      92345.408      5.014987     
     24600   2527.6834     -57141.98      -7757.5617      1306.5882     -6450.9735      92345.408      5.014987     
     24700   2367.8831     -69671.042     -7874.5671      1223.9856     -6650.5815      92345.408      5.014987     
     24800   2432.0113     -85987.661     -7811.374       1257.1342     -6554.2398      92345.408      5.014987     
     24900   2405.3124     -116584.35     -7914.1498      1243.3332     -6670.8166      92345.408      5.014987     
     25000   2223.558      -12607.904     -7828.0183      1149.3823     -6678.636       92345.408      5.014987     
     25100   2284.2995     -53701.101     -7902.1841      1180.7803     -6721.4038      92345.408      5.014987     
     25200   2993.1069     -851.17344     -7799.0755      1547.1708     -6251.9047      92345.408      5.014987     
     25300   2245.2643      80127.377     -7938.7661      1160.6025     -6778.1636      92345.408      5.014987     
     25400   2032.0422      40431.98      -8025.3886      1050.3856     -6975.0029      92345.408      5.014987     
     25500   2171.966       1891.7559     -8010.699       1122.7138     -6887.9852      92345.408      5.014987     
     25600   1867.7726     -74564.949     -7965.1367      965.47279     -6999.6639      92345.408      5.014987     
     25700   1868.1275      47302.831     -7989.7627      965.65625     -7024.1064      92345.408      5.014987     
     25800   2080.2724     -73825.217     -8080.6469      1075.3163     -7005.3306      92345.408      5.014987     
     25900   1669.8055     -67448.122     -8177.2953      863.14138     -7314.1539      92345.408      5.014987     
     26000   2101.9695      54326.055     -8057.6966      1086.5318     -6971.1648      92345.408      5.014987     
     26100   1902.7716     -106914.92     -8138.0306      983.56418     -7154.4664      92345.408      5.014987     
     26200   1558.9178     -10884.12      -8150.1095      805.82227     -7344.2873      92345.408      5.014987     
     26300   1473.7682      2997.586      -8096.6653      761.80747     -7334.8578      92345.408      5.014987     
     26400   2196.1648      129386.24     -8174.4217      1135.2225     -7039.1993      92345.408      5.014987     
     26500   2523.4783     -103325.13     -8003.1668      1304.4145     -6698.7523      92345.408      5.014987     
     26600   2829.5653     -20168.813     -7954.1013      1462.6344     -6491.4669      92345.408      5.014987     
     26700   2806.4697     -109271.22     -8043.3658      1450.696      -6592.6698      92345.408      5.014987     
     26800   2135.4465     -28310.903     -8002.9451      1103.8365     -6899.1086      92345.408      5.014987     
     26900   2851.5701     -10572.338     -7935.6371      1474.0089     -6461.6283      92345.408      5.014987     
     27000   1940.7382     -194431.84     -8124.957       1003.1896     -7121.7674      92345.408      5.014987     
     27100   1649.3223      54167.346     -8096.1767      852.55338     -7243.6233      92345.408      5.014987     
     27200   2299.1538     -90147.382     -8005.2323      1188.4586     -6816.7737      92345.408      5.014987     
     27300   1953.4985     -25941.261     -8072.7914      1009.7855     -7063.0059      92345.408      5.014987     
     27400   1781.0337      31065.647     -8125.5209      920.63647     -7204.8844      92345.408      5.014987     
     27500   1767.6468     -63963.334     -8152.6368      913.71665     -7238.9202      92345.408      5.014987     
     27600   1937.002      -51345.05      -8098.0452      1001.2583     -7096.7869      92345.408      5.014987     
     27700   1874.324       16320.261     -8155.9165      968.85931     -7187.0572      92345.408      5.014987     
     27800   1778.1961     -82345.538     -8122.0383      919.16971     -7202.8686      92345.408      5.014987     
     27900   1638.4866     -108328.6      -8227.3716      846.95228     -7380.4193      92345.408      5.014987     
     28000   1671.8571      59538.591     -8208.9533      864.20187     -7344.7515      92345.408      5.014987     
     28100   2171.0855     -65715.359     -8162.4465      1122.2587     -7040.1879      92345.408      5.014987     
     28200   2569.0206      49619.654     -8096.2579      1327.9558     -6768.3021      92345.408      5.014987     
     28300   2640.6014     -16318.997     -7989.1244      1364.9567     -6624.1677      92345.408      5.014987     
     28400   2152.0708     -267619.61     -8066.5108      1112.4298     -6954.0811      92345.408      5.014987     
     28500   1762.2343     -147792.14     -8194.4034      910.91883     -7283.4846      92345.408      5.014987     
     28600   2707.4106      24735.609     -8052.8071      1399.4912     -6653.3159      92345.408      5.014987     
     28700   2927.0788     -7023.2561     -8112.3021      1513.0402     -6599.2619      92345.408      5.014987     
     28800   2156.6775     -113712.55     -8194.4402      1114.811      -7079.6292      92345.408      5.014987     
     28900   1881.598      -36040.234     -8339.2198      972.61929     -7366.6005      92345.408      5.014987     
     29000   1680.2524     -88020.219     -8280.7895      868.54147     -7412.2481      92345.408      5.014987     
     29100   2016.4766     -32150.016     -8316.5406      1042.3396     -7274.201       92345.408      5.014987     
     29200   1452.2544     -81666.126     -8371.7766      750.68674     -7621.0898      92345.408      5.014987     
     29300   2132.837       16885.495     -8226.8295      1102.4876     -7124.3419      92345.408      5.014987     
     29400   2157.6433     -68435.936     -8391.7235      1115.3102     -7276.4133      92345.408      5.014987     
     29500   2329.8568     -109884.71     -8298.6866      1204.3294     -7094.3573      92345.408      5.014987     
     29600   1680.2938     -20602.532     -8299.4559      868.56291     -7430.893       92345.408      5.014987     
     29700   1964.7522      16382.63      -8186.3876      1015.6026     -7170.785       92345.408      5.014987     
     29800   2088.5671     -138907.51     -8237.7636      1079.604      -7158.1596      92345.408      5.014987     
     29900   1793.037       29432.155     -8292.7129      926.84112     -7365.8718      92345.408      5.014987     
     30000   1793.6545      59605.856     -8369.7799      927.16033     -7442.6196      92345.408      5.014987     
     30100   1799.0725     -95031.647     -8442.1711      929.96096     -7512.2102      92345.408      5.014987     
     30200   1694.996      -22481.007     -8430.7725      876.16263     -7554.6099      92345.408      5.014987     
     30300   1525.3432      17543.878     -8488.0654      788.46718     -7699.5982      92345.408      5.014987     
     30400   1955.085       27145.764     -8492.9946      1010.6055     -7482.389       92345.408      5.014987     
     30500   2281.6052     -73634.169     -8331.4608      1179.3876     -7152.0732      92345.408      5.014987     
     30600   2332.8707     -155977.92     -8440.798       1205.8873     -7234.9107      92345.408      5.014987     
     30700   1645.1811     -11424.325     -8489.1098      850.41274     -7638.697       92345.408      5.014987     
     30800   1945.1055     -27699.984     -8351.2227      1005.4471     -7345.7756      92345.408      5.014987     
     30900   1474.203       30737.159     -8483.6072      762.03223     -7721.5749      92345.408      5.014987     
     31000   1568.8163      15857.973     -8469.612       810.93891     -7658.673       92345.408      5.014987     
     31100   1622.4752      49026.846     -8537.4628      838.67582     -7698.787       92345.408      5.014987     
     31200   2192.0148     -48018.473     -8538.0081      1133.0773     -7404.9309      92345.408      5.014987     
     31300   1466.8465      72503.624     -8484.9889      758.22956     -7726.7593      92345.408      5.014987     
     31400   1927.6402     -63384.021     -8573.2176      996.41904     -7576.7986      92345.408      5.014987     
     31500   1514.1462     -9736.2319     -8584.2058      782.67931     -7801.5265      92345.408      5.014987     
     31600   1909.2905     -44805.923     -8558.3217      986.9339      -7571.3878      92345.408      5.014987     
     31700   1557.091      -62326.38      -8515.4195      804.87797     -7710.5415      92345.408      5.014987     
     31800   1543.0259      4900.3306     -8474.1461      797.60757     -7676.5385      92345.408      5.014987     
     31900   1530.1976     -55792.564     -8476.4441      790.97647     -7685.4676      92345.408      5.014987     
     32000   1868.9236      37974.904     -8432.8538      966.06775     -7466.7861      92345.408      5.014987     
     32100   2103.5717     -51907.788     -8514.3325      1087.36       -7426.9724      92345.408      5.014987     
     32200   2416.5841     -80278.228     -8519.3081      1249.1597     -7270.1485      92345.408      5.014987     
     32300   2073.3813     -11787.985     -8477.0229      1071.7543     -7405.2686      92345.408      5.014987     
     32400   2237.7815      43085.175     -8392.1238      1156.7346     -7235.3892      92345.408      5.014987     
     32500   2039.5653     -58499.857     -8320.951       1054.2744     -7266.6766      92345.408      5.014987     
     32600   1519.7232      40405.583     -8491.9106      785.56211     -7706.3485      92345.408      5.014987     
