LAMMPS (22 Jul 2025 - Update 2)
OMP_NUM_THREADS environment is not set. Defaulting to 1 thread.
  using 1 OpenMP thread(s) per MPI task
Lattice spacing in x,y,z = 4.1 4.1 4.1
Created orthogonal box = (0 0 0) to (41 41 41)
  2 by 2 by 4 MPI processor grid
Created 4000 atoms
  using lattice units in orthogonal box = (0 0 0) to (41 41 41)
  create_atoms CPU = 0.033 seconds
Neighbor list info ...
  update: every = 1 steps, delay = 0 steps, check = yes
  max neighbors/atom: 2000, page size: 100000
  master list distance cutoff = 10.3
  ghost atom cutoff = 10.3
  binsize = 5.15, bins = 8 8 8
  1 neighbor lists, perpetual/occasional/extra = 1 0 0
  (1) pair eam/alloy, perpetual
      attributes: half, newton on
      pair build: half/bin/atomonly/newton
      stencil: half/bin/3d
      bin: standard
Setting up cg style minimization ...
  Unit style    : metal
  Current step  : 0
Per MPI rank memory allocation (min/avg/max) = 4.59 | 4.608 | 4.624 Mbytes
   Step          Temp          E_pair         E_mol          TotEng         Press     
         0   1500          -11384.814      0             -10609.447      9430.7178    
         1   1500          -11384.814      0             -10609.447      9430.7178    
Loop time of 0.0869981 on 16 procs for 1 steps with 4000 atoms

103.5% CPU use with 16 MPI tasks x 1 OpenMP threads

Minimization stats:
  Stopping criterion = energy tolerance
  Energy initial, next-to-last, final = 
     -11384.8137088406  -11384.8137088406  -11384.8137088406
  Force two-norm initial, final = 7.3357924e-13 7.128875e-13
  Force max component initial, final = 1.7142537e-14 1.7059271e-14
  Final line search alpha, max atom move = 1 1.7059271e-14
  Iterations, force evaluations = 1 2

MPI task timing breakdown:
Section |  min time  |  avg time  |  max time  |%varavg| %total
---------------------------------------------------------------
Pair    | 0.027689   | 0.029386   | 0.031412   |   0.7 | 33.78
Neigh   | 0          | 0          | 0          |   0.0 |  0.00
Comm    | 0.0088105  | 0.015259   | 0.01857    |   2.1 | 17.54
Output  | 0          | 0          | 0          |   0.0 |  0.00
Modify  | 0          | 0          | 0          |   0.0 |  0.00
Other   |            | 0.04235    |            |       | 48.68

Nlocal:            250 ave         300 max         200 min
Histogram: 4 0 0 0 0 8 0 0 0 4
Nghost:           3278 ave        3328 max        3228 min
Histogram: 4 0 0 0 0 8 0 0 0 4
Neighs:          31000 ave       37674 max       26039 min
Histogram: 4 0 2 3 3 0 0 0 0 4

Total # of neighbors = 496000
Ave neighs/atom = 124
Neighbor list builds = 0
Dangerous builds = 0
=== Stage 1: Melting at 1500K with NPT ===
Neighbor list info ...
  update: every = 1 steps, delay = 0 steps, check = yes
  max neighbors/atom: 2000, page size: 100000
  master list distance cutoff = 10.3
  ghost atom cutoff = 10.3
  binsize = 5.15, bins = 8 8 8
  2 neighbor lists, perpetual/occasional/extra = 1 1 0
  (1) pair eam/alloy, perpetual
      attributes: half, newton on
      pair build: half/bin/atomonly/newton
      stencil: half/bin/3d
      bin: standard
  (2) compute rdf, occasional, copy from (1)
      attributes: half, newton on
      pair build: copy
      stencil: none
      bin: none
Setting up Verlet run ...
  Unit style    : metal
  Current step  : 1
  Time step     : 0.0005
Per MPI rank memory allocation (min/avg/max) = 3.965 | 3.983 | 3.999 Mbytes
   Step          Temp          Press          PotEng         KinEng         TotEng         Volume        Density    
         1   1500           9430.7178     -11384.814      775.36698     -10609.447      68921          6.7194472    
       100   732.91642      45528.162     -11000.607      378.85279     -10621.754      70636.281      6.556277     
       200   1024.2135     -38593.817     -11006.736      529.42754     -10477.308      73530.831      6.2981883    
       300   1316.3438     -65463.974     -10812.602      680.43302     -10132.169      74319.415      6.2313599    
       400   1872.4406      66062.618     -10648.614      967.88576     -9680.7287      73863.038      6.2698615    
       500   2100.9859     -55327.9       -10433.565      1086.0234     -9347.5417      73773.689      6.2774551    
       600   2567.0404      77651.337     -10249.456      1326.9322     -8922.5236      73875.145      6.268834     
       700   3112.9502     -18474.807     -10132.326      1609.1192     -8523.2071      74241.113      6.2379321    
       800   3427.1051      128565.05     -9964.6562      1771.5094     -8193.1468      74472.867      6.2185201    
       900   3521.8665      115519.06     -9738.6368      1820.4927     -7918.1441      75065.833      6.1693983    
      1000   3905.8507     -29616.373     -9579.819       2018.9785     -7560.8406      74855.854      6.1867041    
      1100   4335.2227      49270.947     -9559.9311      2240.9257     -7319.0054      75637.152      6.1227982    
      1200   4188.4044     -232159.02     -9448.7766      2165.0337     -7283.7429      75554.127      6.1295265    
      1300   4262.246       199250.85     -9372.8396      2203.2032     -7169.6364      75831.86       6.1070772    
      1400   4547.6024      117250.92     -9313.2309      2350.7072     -6962.5238      75954.51       6.0972156    
      1500   4389.9726     -22363.499     -9370.4615      2269.2265     -7101.235       75953.988      6.0972575    
      1600   4751.457      -34357.926     -9359.0935      2456.0819     -6903.0116      76430.184      6.0592687    
      1700   4625.2061     -64589.621     -9312.3658      2390.8214     -6921.5444      76024.964      6.0915652    
      1800   4434.4517     -40441.209     -9354.6644      2292.2183     -7062.4461      76253.207      6.0733317    
      1900   4234.7659      121795.27     -9412.8914      2188.9984     -7223.893       76083.414      6.0868854    
      2000   3753.0924      121391.56     -9441.4         1940.0159     -7501.3841      76029.269      6.0912202    
      2100   3803.3767     -3829.4491     -9447.9981      1966.0085     -7481.9896      75864.921      6.1044158    
      2200   3820.8978     -68315.16      -9548.8002      1975.0653     -7573.7348      75480.348      6.1355178    
      2300   3600.6956      12019.058     -9555.015       1861.2403     -7693.7747      75689.338      6.1185767    
      2400   3665.9729     -15546.598     -9650.085       1894.9829     -7755.1021      75715.833      6.1164356    
      2500   3391.9354     -82960.512     -9671.3967      1753.3298     -7918.0669      75238.732      6.155221     
      2600   3553.9094     -91554.7       -9724.9745      1837.056      -7887.9185      75419.531      6.1404654    
      2700   3449.6514      11823.794     -9785.1391      1783.1639     -8001.9753      75021.34       6.1730572    
      2800   2971.4472     -35929.778     -9793.1313      1535.9747     -8257.1566      75479.957      6.1355496    
      2900   2941.5193      85862.348     -9808.216       1520.5046     -8287.7113      75415.281      6.1408114    
      3000   2916.0028      51377.8       -9835.1188      1507.3148     -8327.804       75347.33       6.1463494    
      3100   3166.3148      30170.706     -9898.3356      1636.704      -8261.6316      74856.942      6.1866142    
      3200   3043.4689      36790.245     -9917.0665      1573.2035     -8343.863       75631.986      6.1232164    
      3300   3070.3975     -31199.085     -9890.857       1587.1232     -8303.7338      75121.482      6.164828     
      3400   3253.4907      8002.6626     -9929.4727      1681.7662     -8247.7065      75137.587      6.1635067    
      3500   3163.1168     -2513.6187     -9957.8106      1635.0509     -8322.7597      74763.915      6.1943121    
      3600   2793.3115     -212594.57     -10038.976      1443.8943     -8595.0819      75105.052      6.1661767    
      3700   2657.4985     -33436.045     -10065.915      1373.691      -8692.2241      74970.152      6.177272     
      3800   2500.8401     -49429.068     -10083.143      1292.7125     -8790.4308      75170.38       6.1608179    
      3900   2537.8835     -62703.76      -10063.658      1311.8607     -8751.7968      75083.326      6.1679609    
      4000   2587.6997      31377.063     -10149.564      1337.6113     -8811.9524      75067.505      6.1692608    
      4100   2507.7884     -28273.64      -10107.441      1296.3042     -8811.1366      75166.847      6.1611074    
      4200   2472.6253     -3730.0362     -10106.282      1278.128      -8828.1539      75190.012      6.1592093    
      4300   2510.9114      43641.671     -10107.734      1297.9185     -8809.8153      75016.917      6.1734212    
      4400   2353.7227      32219.906     -10071.481      1216.6659     -8854.815       75014.615      6.1736106    
      4500   2552.3294      46339.742     -10101.296      1319.3279     -8781.9685      75159.092      6.1617431    
      4600   2654.6591      25083.534     -10061.338      1372.2233     -8689.1144      75208.17       6.1577222    
      4700   2665.8605     -111456.71     -10134.391      1378.0135     -8756.3772      74989.369      6.175689     
      4800   2551.1608      76081.695     -10176.851      1318.7239     -8858.1273      74954.92       6.1785273    
      4900   2314.6901      24927.705     -10202.922      1196.4895     -9006.4324      75103.317      6.1663192    
      5000   2344.3237     -61584.001     -10230.26       1211.8074     -9018.4525      75274.925      6.1522614    
      5100   2469.4616      20990.3       -10187.098      1276.4927     -8910.6057      75225.468      6.1563062    
      5200   2651.8733      34329.098     -10222.473      1370.7833     -8851.6898      74958.593      6.1782245    
      5300   2432.9774     -48551.817     -10216.434      1257.6336     -8958.8007      74789.463      6.1921961    
      5400   2352.0647      23534.842     -10235.062      1215.8089     -9019.2532      74964.515      6.1777365    
      5500   2436.7398     -73141.569     -10228.143      1259.5784     -8968.565       75301.328      6.1501043    
      5600   2480.0253      68196.217     -10208.683      1281.9531     -8926.7299      75400.769      6.1419934    
      5700   2364.3983      69097.526     -10200.821      1222.1842     -8978.6371      75448.251      6.138128     
      5800   2404.6706     -49256.434     -10170.418      1243.0014     -8927.417       75566.452      6.1285267    
      5900   2328.788       45760.649     -10158.463      1203.7769     -8954.6861      75582.948      6.1271892    
      6000   2414.9509      14516.59      -10116.792      1248.3155     -8868.4762      75702.439      6.1175179    
      6100   2480.9835     -149950.42     -10098.419      1282.4485     -8815.9708      75512.931      6.1328704    
      6200   2678.1996      7167.9666     -10104.839      1384.3917     -8720.4474      75822.271      6.1078495    
      6300   2510.9987     -154954.83     -10022.712      1297.9637     -8724.7488      75790.115      6.1104409    
      6400   2633.217       12446.007     -10102.569      1361.1397     -8741.429       75315.335      6.1489605    
      6500   2312.7184     -155672.73     -10025.265      1195.4703     -8829.7944      76068.912      6.0880458    
      6600   2603.4877     -12618.705     -10047.917      1345.7723     -8702.1447      75352.221      6.1459505    
      6700   2867.1841      84527.812     -10080.715      1482.0799     -8598.635       75586.344      6.1269139    
      6800   2853.8854      13248.475     -10051.515      1475.2057     -8576.3095      75584.736      6.1270442    
      6900   2600.2716     -28804.499     -10052.224      1344.1098     -8708.1141      76166.247      6.0802657    
      7000   2542.2979     -25190.416     -10042.087      1314.1426     -8727.9439      75894.609      6.1020279    
      7100   2645.2858      35140.685     -10085.811      1367.3782     -8718.4331      75533.423      6.1312066    
      7200   2575.4871     -88645.498     -10078.099      1331.2984     -8746.8006      75831.081      6.1071399    
      7300   2466.3765     -121515.29     -10065.409      1274.898      -8790.5111      75764.712      6.1124897    
      7400   2564.4303      52182.341     -10119.232      1325.5831     -8793.6489      75388.597      6.142985     
      7500   2385.821       48456.388     -10170.782      1233.2579     -8937.5237      75737.081      6.1147197    
      7600   2420.3717      47558.134     -10115.593      1251.1175     -8864.4754      75674.556      6.1197719    
      7700   2406.9151     -96125.927     -10123.406      1244.1617     -8879.2445      75960.711      6.0967178    
      7800   2361.4163      52977.913     -10106.739      1220.6428     -8886.0958      75599.654      6.1258352    
      7900   2427.4864      44263.921     -10171.023      1254.7952     -8916.2278      75481.026      6.1354627    
      8000   2411.7068     -11208.865     -10139.607      1246.6386     -8892.9682      75882.973      6.1029636    
      8100   2400.5409      83279.015     -10175.761      1240.8668     -8934.8943      75947.618      6.0977689    
      8200   2436.4955      60446.266     -10136.092      1259.4521     -8876.6404      75890.694      6.1023426    
      8300   2636.0271     -15829.112     -10074.219      1362.5922     -8711.6264      76218.064      6.076132     
      8400   2339.6881      33329.873     -10080.29       1209.4113     -8870.8785      76298.442      6.0697311    
      8500   2535.3432      11876.211     -10035.224      1310.5476     -8724.6769      75880.224      6.1031847    
      8600   2514.2717     -40933.467     -10059.751      1299.6555     -8760.0958      76510.235      6.052929     
      8700   2372.8102     -56114.578     -10033.491      1226.5325     -8806.9581      76510.321      6.0529222    
      8800   2528.2075      32243.658     -10001.919      1306.8591     -8695.0598      75772.301      6.1118774    
      8900   2528.1756     -21287.222     -10062.518      1306.8426     -8755.675       75883.351      6.1029331    
      9000   2338.4652      63613.919     -9991.4196      1208.7791     -8782.6405      76417.388      6.0602833    
      9100   2344.2858     -11014.112     -9935.8704      1211.7879     -8724.0825      76224.551      6.0756149    
      9200   2465.0271     -34596.159     -9976.264       1274.2004     -8702.0636      76708.945      6.0372493    
      9300   2409.7229      30809.95      -9949.4707      1245.613      -8703.8577      76360.466      6.0648009    
      9400   2371.844       56005.059     -9969.1788      1226.033      -8743.1458      76833.926      6.0274288    
      9500   2702.7406      13885.684     -10015.068      1397.0772     -8617.9908      76375.685      6.0635923    
      9600   2653.1965     -12323.964     -9972.4806      1371.4673     -8601.0133      76612.596      6.0448418    
      9700   2747.5649      4855.8168     -9956.0688      1420.2474     -8535.8214      76502.173      6.0535669    
      9800   2725.0062     -126188.98     -9997.6124      1408.5866     -8589.0258      76503.668      6.0534485    
      9900   2532.7845      59716.507     -9976.2326      1309.225      -8667.0076      76317.675      6.0682014    
     10000   2397.2984     -14528.372     -9994.4998      1239.1907     -8755.3092      76780.257      6.031642     
     10001   2392.3721      5408.6226     -9991.9736      1236.6442     -8755.3294      76786.89       6.0311209    
Loop time of 617.841 on 16 procs for 10000 steps with 4000 atoms

Performance: 0.699 ns/day, 34.324 hours/ns, 16.185 timesteps/s, 64.742 katom-step/s
104.2% CPU use with 16 MPI tasks x 1 OpenMP threads

MPI task timing breakdown:
Section |  min time  |  avg time  |  max time  |%varavg| %total
---------------------------------------------------------------
Pair    | 166.99     | 172.19     | 176.91     |  20.1 | 27.87
Neigh   | 0.41231    | 0.54737    | 0.70889    |  11.8 |  0.09
Comm    | 153.19     | 158.89     | 163.49     |  24.6 | 25.72
Output  | 2.8666     | 2.9463     | 3.0633     |   2.8 |  0.48
Modify  | 223.77     | 227.97     | 231.36     |  15.5 | 36.90
Other   |            | 55.3       |            |       |  8.95

Nlocal:            250 ave         263 max         207 min
Histogram: 1 0 0 0 1 0 2 2 6 4
Nghost:        2613.56 ave        2667 max        2578 min
Histogram: 4 2 1 1 3 1 0 1 0 3
Neighs:        29814.3 ave       32268 max       22924 min
Histogram: 1 1 0 0 0 0 1 4 6 3

Total # of neighbors = 477029
Ave neighs/atom = 119.25725
Neighbor list builds = 267
Dangerous builds = 0
=== Stage 2: Cooling to 293K with NPT ===
Setting up Verlet run ...
  Unit style    : metal
  Current step  : 10001
  Time step     : 0.0005
Per MPI rank memory allocation (min/avg/max) = 3.957 | 3.975 | 3.991 Mbytes
   Step          Temp          Press          PotEng         KinEng         TotEng         Volume        Density    
     10001   2392.3721      5408.6226     -9991.9736      1236.6442     -8755.3294      76786.89       6.0311209    
     10100   3148.939       46677.954     -9859.0029      1627.7222     -8231.2807      76639.377      6.0427295    
     10200   3629.3089     -188060.59     -9720.1099      1876.0309     -7844.0791      77254.969      5.9945791    
     10300   4100.2365      36142.45      -9515.3288      2119.4587     -7395.8701      77269.058      5.993486     
     10400   4458.8032      15819.576     -9361.3502      2304.8059     -7056.5443      78014.262      5.9362353    
     10500   4360.0665      92771.517     -9228.3591      2253.7678     -6974.5913      77694.57       5.9606613    
     10600   4291.1598      16458.647     -9096.6793      2218.1491     -6878.5302      77832.656      5.9500863    
     10700   4638.9702      79625.621     -9157.3558      2397.9362     -6759.4195      77823.097      5.9508172    
     10800   4354.4649     -126169.92     -9123.0708      2250.8722     -6872.1986      78250.099      5.9183442    
     10900   4294.2034      7203.4246     -9052.497       2219.7224     -6832.7747      78792.319      5.8776163    
     11000   4173.5965      40728.192     -9002.7193      2157.3793     -6845.3401      78650.909      5.8881839    
     11100   4286.1825     -16540.307     -9009.7511      2215.5763     -6794.1748      78962.068      5.8649809    
     11200   3912.6455     -26462.22      -9047.1683      2022.4908     -7024.6775      78612.074      5.8910928    
     11300   3927.4289     -11795.348     -8986.9385      2030.1325     -6956.806       78944.397      5.8662938    
     11400   3883.8587      90775.356     -9025.563       2007.6105     -7017.9524      78708.023      5.8839112    
     11500   3952.4182      65379.826     -9136.3553      2043.0497     -7093.3056      78533.979      5.8969509    
     11600   3593.1794     -75792.846     -8999.0129      1857.3551     -7141.6577      79173.843      5.8492932    
     11700   3428.2553     -193554.19     -9028.0123      1772.104      -7255.9083      79008.906      5.861504     
     11800   3359.2536     -87660.933     -9084.1347      1736.4362     -7347.6985      78706.812      5.8840017    
     11900   3403.6765      55242.702     -9148.4028      1759.3989     -7389.0038      78664.061      5.8871995    
     12000   3433.9648      21990.406     -9221.399       1775.0553     -7446.3437      77792.04       5.9531929    
     12100   3201.2678      27559.763     -9227.328       1654.7716     -7572.5565      78711.341      5.8836632    
     12200   3072.8369     -186762.53     -9129.8717      1588.3842     -7541.4875      78751.626      5.8806535    
     12300   3113.62       -53274.458     -9216.63        1609.4654     -7607.1645      78273.091      5.9166057    
     12400   3070.1624     -35203.737     -9249.9215      1587.0017     -7662.9198      78214.277      5.9210548    
     12500   3335.3528      150271.04     -9308.7338      1724.0816     -7584.6522      77492.715      5.9761878    
     12600   3323.247      -18904.509     -9348.5987      1717.824      -7630.7747      77974.084      5.9392942    
     12700   3106.8714      33977.512     -9314.0262      1605.977      -7708.0493      78037.644      5.9344567    
     12800   2859.3869     -7756.4301     -9392.4017      1478.0494     -7914.3522      78092.006      5.9303256    
     12900   2867.1399      77263.096     -9445.9072      1482.0571     -7963.8501      77741.674      5.9570498    
     13000   3046.2828     -35009.973     -9468.7849      1574.6581     -7894.1268      77551.678      5.9716441    
     13100   3053.1439      13539.843     -9538.5315      1578.2047     -7960.3268      77856.488      5.948265     
     13200   2769.4284      31676.288     -9440.8205      1431.5489     -8009.2716      77876.885      5.946707     
     13300   2744.7737     -7430.7589     -9496.676       1418.8046     -8077.8714      77372.009      5.9855112    
     13400   2849.3392     -17110.854     -9537.2604      1472.8557     -8064.4047      77477.669      5.9773484    
     13500   2838.2091      27586.378     -9618.5382      1467.1024     -8151.4358      77280.694      5.9925836    
     13600   2911.5368      61236.185     -9578.3794      1505.0063     -8073.3731      77033.107      6.011844     
     13700   2810.9775      5155.3964     -9598.7457      1453.0261     -8145.7196      77477.904      5.9773303    
     13800   2588.9329      79326.544     -9614.7703      1338.2487     -8276.5215      77317.638      5.9897202    
     13900   2636.1712     -65111.776     -9668.4118      1362.6667     -8305.7451      76884.418      6.0234704    
     14000   2580.2877      60244.898     -9747.8484      1333.7799     -8414.0685      76710.534      6.0371242    
     14100   2695.3258     -19167.601     -9717.2606      1393.2444     -8324.0162      76681.97       6.039373     
     14200   2641.8818      75699.546     -9749.2756      1365.6186     -8383.657       76944.512      6.0187661    
     14300   2426.8018     -83809.865     -9783.0385      1254.4413     -8528.5971      76794.278      6.0305407    
     14400   2560.2171      100120.22     -9807.6602      1323.4052     -8484.255       76483.077      6.0550783    
     14500   2669.5338      9505.8519     -9901.3943      1379.9123     -8521.4821      76427.175      6.0595072    
     14600   2262.9155     -18938.544     -9832.0339      1169.7266     -8662.3072      77008.299      6.0137807    
     14700   2547.3448      9045.3169     -9820.8692      1316.7513     -8504.1179      76549.162      6.049851     
     14800   2651.309       64354.598     -9884.9493      1370.4916     -8514.4577      75820.712      6.1079751    
     14900   2479.2746      87215.812     -9929.7302      1281.5651     -8648.1651      75960.506      6.0967343    
     15000   2518.4992     -58311.073     -9937.3772      1301.8407     -8635.5365      76278.114      6.0713486    
     15100   2336.8181     -51569.473     -9926.4379      1207.9277     -8718.5102      76390.63       6.0624061    
     15200   2287.3894     -18416.128     -9898.0906      1182.3775     -8715.7131      76520.055      6.0521523    
     15300   2569.3288     -31918.3       -9954.2984      1328.1152     -8626.1832      76117.581      6.0841532    
     15400   2253.1395      14976.983     -9958.7541      1164.6733     -8794.0808      76197.397      6.07778      
     15500   2398.7523      1603.3594     -10039.382      1239.9422     -8799.4402      75624.94       6.123787     
     15600   2480.9985      1651.4271     -10106.094      1282.4562     -8823.6373      75552.527      6.1296562    
     15700   2253.4964     -66904.756     -10136.549      1164.8578     -8971.6917      75634.168      6.1230398    
     15800   2145.9013     -18287.757     -10128.398      1109.2406     -9019.157       75734.797      6.1149041    
     15900   2169.0381      96372.296     -10147.76       1121.2004     -9026.5593      75502.175      6.1337441    
     16000   2081.3843      83425.665     -10202.171      1075.8911     -9126.2799      74957.447      6.1783191    
     16100   1889.9324      67079.604     -10219.095      976.92747     -9242.1678      75797.754      6.1098251    
     16200   1867.652       73424.066     -10231.055      965.41047     -9265.6443      75532.79       6.131258     
     16300   1850.1921     -11351.725     -10305.989      956.38525     -9349.604       75727.948      6.1154572    
     16400   1846.4023      23805.8       -10269.595      954.42626     -9315.1683      75873.487      6.1037266    
     16500   1908.7085      79853.888     -10321.73       986.63302     -9335.0968      75410.009      6.1412407    
     16600   2023.3444     -3333.5342     -10301.139      1045.8896     -9255.2493      75593.212      6.1263572    
     16700   1970.8531      32344.458     -10329.945      1018.7563     -9311.1887      75200.563      6.1583451    
     16800   1811.2031     -36382.909     -10317.708      936.23137     -9381.477       75403.314      6.1417861    
     16900   1673.4408      29013.677     -10332.485      865.02047     -9467.4648      75318.737      6.1486828    
     17000   1956.6544     -95408.131     -10397.343      1011.4168     -9385.9266      75650.169      6.1217447    
     17100   1645.24        48530.147     -10383.515      850.44315     -9533.0717      75719.58       6.1161329    
     17200   1510.3692     -56808.339     -10411.012      780.72696     -9630.2853      75674.596      6.1197687    
     17300   1589.9863      43270.964     -10417.254      821.88191     -9595.372       75888.556      6.1025146    
     17400   1742.83        36641.306     -10401.783      900.88855     -9500.8941      75412.344      6.1410506    
     17500   1580.127       5328.1252     -10418.757      816.78552     -9601.972       75681.205      6.1192342    
     17600   1562.5029      61418.284     -10429.755      807.67544     -9622.0792      75551.974      6.1297012    
     17700   1588.8054      6205.0719     -10424.939      821.27147     -9603.6675      75539.809      6.1306883    
     17800   1661.0837     -25607.665     -10402.883      858.63299     -9544.2504      75493.243      6.1344698    
     17900   1734.5347     -32571.007     -10408.955      896.60061     -9512.3544      75782.815      6.1110295    
     18000   1767.5175     -39921.91      -10384.486      913.6498      -9470.8366      74716.672      6.1982287    
     18100   1585.3471     -62872.149     -10397.569      819.48387     -9578.0848      75545.859      6.1301973    
     18200   1768.6489      8563.1418     -10408.674      914.23463     -9494.4389      75172          6.1606851    
     18300   1569.9213     -59258.801     -10406.159      811.5101      -9594.6486      75381.004      6.1436038    
     18400   1591.9324     -9421.2112     -10397.662      822.88785     -9574.7746      75066.734      6.1693242    
     18500   1739.7933      75714.241     -10431.511      899.31886     -9532.1925      74576.039      6.2099171    
     18600   1803.6444     -68783.841     -10471.447      932.32421     -9539.1233      74684.539      6.2008955    
     18700   1740.8853      2502.6451     -10545.136      899.88331     -9645.2528      74942.425      6.1795575    
     18800   1516.7731     -38614.519     -10531.119      784.03719     -9747.0819      75261.419      6.1533655    
     18900   1437.9404      78055.739     -10491.821      743.28765     -9748.5332      75358.909      6.145405     
     19000   1435.504       44187.63      -10468.547      742.02829     -9726.5191      75152.574      6.1622775    
     19100   1511.2132      28447.175     -10433.603      781.16323     -9652.4398      75175.17       6.1604253    
     19200   1459.5292      16154.673     -10476.183      754.44719     -9721.7363      75278.085      6.1520032    
     19300   1360.0141      11486.907     -10461.892      703.00666     -9758.8855      75154.68       6.1621049    
     19400   1532.0121     -14619.103     -10489.632      791.91439     -9697.7179      74556.115      6.2115766    
     19500   1564.3278     -58188.121     -10502.305      808.61873     -9693.6861      75314.506      6.1490282    
     19600   1538.4279      31735.813     -10498.416      795.2308      -9703.1852      74681.973      6.2011085    
     19700   1703.7108     -16458.921     -10563.349      880.66741     -9682.6817      74806.049      6.1908231    
     19800   1528.749       34502.373     -10522.168      790.22765     -9731.9401      74315.719      6.2316698    
     19900   1408.5975     -112894.56     -10582.038      728.11998     -9853.9179      74689.245      6.2005048    
     20000   1412.0676      51721.183     -10588.58       729.9137      -9858.6663      74584.713      6.2091949    
     20100   1456.5784      43873.444     -10618.551      752.92186     -9865.6291      74616.487      6.2065508    
     20200   1514.27       -57215.866     -10587.884      782.74332     -9805.1407      75361.14       6.1452231    
     20300   1426.4861     -33362.488     -10618.192      737.36679     -9880.8257      75001.28       6.1747082    
     20400   1330.0189      16205.745     -10605.779      687.5018      -9918.2774      74296.677      6.2332669    
     20500   1294.1124      58490.014     -10651.755      668.94135     -9982.8139      74541.31       6.2128103    
     20600   1510.1339     -24904.691     -10690.942      780.60529     -9910.3368      74687.032      6.2006885    
     20700   1365.5692      32079.117     -10617.924      705.8782      -9912.0455      75086.584      6.1676933    
     20800   1392.1323      12729.965     -10663.098      719.60897     -9943.4892      75262.282      6.1532949    
     20900   1308.7657     -10260.353     -10680.896      676.51579     -10004.38       74889.247      6.1839455    
     21000   1342.7884      37288.692     -10727.916      694.10251     -10033.813      74657.514      6.2031401    
     21100   1291.6619      46317.068     -10711.288      667.67465     -10043.613      74716.429      6.1982489    
     21200   1276.3092      6694.4784     -10695.859      659.73867     -10036.121      74263.743      6.2360312    
     21300   1233.7915      26836.942     -10725.834      637.76082     -10088.073      74642.088      6.2044221    
     21400   1148.3528      32080.594     -10709.143      593.59657     -10115.546      75092.267      6.1672265    
     21500   1204.1397      33836.546     -10687.839      622.43343     -10065.406      75034.138      6.1720043    
     21600   1300.239       51452.085     -10696.819      672.10825     -10024.71       74557.693      6.2114452    
     21700   1134.2887      45554.706     -10735.54       586.32669     -10149.213      74870.164      6.1855217    
     21800   1092.5775      44878.693     -10735.093      564.76569     -10170.327      74380.563      6.2262371    
     21900   1100.377       49515.887     -10753.405      568.7973      -10184.607      74648.994      6.2038481    
     22000   1101.4927     -66640.952     -10740.169      569.37406     -10170.795      74983.373      6.1761828    
     22100   1164.8597      36998.317     -10703.945      602.12917     -10101.816      74640.763      6.2045322    
     22200   1212.1251      36048.697     -10703.788      626.5612      -10077.227      74481.392      6.2178084    
     22300   1196.2225      42019.92      -10779.078      618.34096     -10160.737      73938.203      6.2634876    
     22400   1051.6422      43345.931     -10797.193      543.60575     -10253.588      74319.828      6.2313252    
     22500   984.7646       44714.641     -10809.098      509.03597     -10300.062      74534.222      6.2134012    
     22600   1133.5598     -873.29232     -10822.923      585.94988     -10236.973      74161.148      6.2446582    
     22700   1007.9405      21617.729     -10839.069      521.01585     -10318.053      74763.875      6.1943154    
     22800   938.55617      41391.723     -10807.498      485.15031     -10322.348      74886.466      6.1841752    
     22900   979.55522     -982.90324     -10805.485      506.34318     -10299.142      75051.927      6.1705414    
     23000   987.91557      49081.105     -10765.084      510.66474     -10254.419      74630.417      6.2053924    
     23100   1056.9573      33045.844     -10813.998      546.35317     -10267.645      74350.823      6.2287276    
     23200   952.61157      41107.527     -10869.904      492.4157      -10377.488      74260.201      6.2363286    
     23300   837.39251      22313.082     -10842.106      432.85767     -10409.248      74665.491      6.2024774    
     23400   941.18025     -36047.587     -10859.338      486.50673     -10372.831      74193.003      6.2419771    
     23500   935.1045       31128.633     -10874.733      483.3661      -10391.367      74472.475      6.2185528    
     23600   992.78386     -78529.843     -10856.208      513.18121     -10343.027      74216.223      6.2400241    
     23700   991.33897     -5592.8369     -10833.806      512.43433     -10321.372      74382.87       6.226044     
     23800   895.05018     -43273.794     -10854.646      462.66157     -10391.985      74761.804      6.194487     
     23900   1026.1279      37087.582     -10786.06       530.41713     -10255.643      74073.058      6.2520846    
     24000   1020.1155      33326.912     -10845.628      527.30924     -10318.319      74104.55       6.2494276    
     24100   907.03414      35686.832     -10837.934      468.85621     -10369.078      74641.995      6.2044298    
     24200   1015.8799     -27334.323     -10836.317      525.11984     -10311.197      74170.647      6.2438585    
     24300   936.846       -33768.585     -10839.227      484.2663      -10354.961      74643.787      6.2042808    
     24400   929.57979      28935.546     -10835.232      480.51032     -10354.722      74580.189      6.2095715    
     24500   905.24142     -8554.6824     -10836.831      467.92954     -10368.901      74047.631      6.2542314    
     24600   930.53671      18484.853     -10840.312      481.00496     -10359.307      74910.958      6.1821532    
     24700   944.18806      27595.803     -10802.716      488.0615      -10314.655      74632.175      6.2052462    
     24800   888.96968      25321.608     -10828.534      459.51849     -10369.015      74744.039      6.1959593    
     24900   931.55822      22450.91      -10828.364      481.53299     -10346.831      74179.189      6.2431395    
     25000   889.74451     -102547.33     -10890.439      459.91901     -10430.52       74470.182      6.2187443    
     25100   889.28204      33568.391     -10860.124      459.67995     -10400.444      74319.278      6.2313713    
     25200   883.54148     -32728.557     -10874.792      456.71259     -10418.079      74345.837      6.2291453    
     25300   899.06921      20334.432     -10892.875      464.73905     -10428.136      74601.846      6.2077689    
     25400   876.78879      20697.422     -10844.448      453.22205     -10391.226      74923.388      6.1811276    
     25500   1028.0623      41879.393     -10836.622      531.41703     -10305.205      73727.736      6.2813677    
     25600   965.03564      17902.925     -10850.478      498.83785     -10351.641      74428.938      6.2221904    
     25700   963.13572      29258.636     -10894.208      497.85576     -10396.352      74371.246      6.2270171    
     25800   797.04511      23178.993     -10909.012      412.00164     -10497.01       74299.98       6.2329898    
     25900   734.80576      34422.578     -10923.244      379.82941     -10543.415      74273.238      6.235234     
     26000   738.40028      28752.54      -10927.959      381.68746     -10546.272      74325.84       6.2308212    
     26100   759.96653      19562.927     -10920.188      392.8353      -10527.353      74618.993      6.2063424    
     26200   741.18995      30533.149     -10932.222      383.12947     -10549.093      74409.965      6.2237769    
     26300   753.194        23863.551     -10963.129      389.33451     -10573.794      74173.502      6.2436181    
     26400   678.45827      28049.659     -10969.498      350.70276     -10618.796      74105.324      6.2493623    
     26500   784.7397       25043.184     -11006.735      405.64084     -10601.094      74116.846      6.2483909    
     26600   656.7278      -27051.346     -10992.434      339.47004     -10652.964      73938.631      6.2634514    
     26700   748.03808     -89460.304     -11000.081      386.66935     -10613.412      73741.366      6.2802067    
     26800   712.89713      30465.5       -11010.509      368.5046      -10642.005      73904.385      6.2663538    
     26900   660.66747     -43389.906     -11005.09       341.5065      -10663.583      74172.218      6.2437262    
     27000   664.03351     -27477.982     -11014.687      343.24644     -10671.44       74365.151      6.2275275    
     27100   691.27172      29257.607     -11001.101      357.32618     -10643.775      73808.96       6.2744553    
     27200   596.0816       26358.258     -11016.961      308.12132     -10708.84       74149.542      6.2456356    
     27300   577.79812      5062.3985     -11006.011      298.67039     -10707.34       74481.076      6.2178347    
     27400   647.61267      14729.918     -10987.855      334.75832     -10653.097      74032.921      6.2554741    
     27500   586.01015     -43707.932     -11005.106      302.91528     -10702.191      74360.168      6.2279448    
     27600   571.13352     -13558.885     -11002.112      295.22538     -10706.887      74232.514      6.2386547    
     27700   691.98878     -15274.73      -11031.387      357.69684     -10673.69       74173.635      6.2436069    
     27800   581.45309     -2130.714      -11050.297      300.55968     -10749.738      74040.208      6.2548585    
     27900   551.72963      18739.166     -11050.72       285.19529     -10765.525      74014.021      6.2570715    
     28000   523.69357      23839.602     -11028.496      270.70314     -10757.793      74318.866      6.2314059    
     28100   549.45492     -9660.769      -11037.962      284.01947     -10753.942      74215.68       6.2400698    
     28200   462.15668     -32394.362     -11040.549      238.89402     -10801.655      73989.112      6.259178     
     28300   603.07651     -41420.769     -11047.634      311.73707     -10735.897      73921.448      6.2649073    
     28400   636.23891      20671.493     -11056.149      328.87909     -10727.27       73800.241      6.2751966    
     28500   589.48008      16872.994     -11059.218      304.70893     -10754.509      74257.463      6.2365586    
     28600   633.00646     -32249.188     -11080.912      327.20821     -10753.703      74062.11       6.2530088    
     28700   465.38183      14365.081     -11082.291      240.56114     -10841.73       74546.365      6.2123891    
     28800   485.17136      14134.921     -11068.807      250.79057     -10818.017      74354.904      6.2283857    
     28900   519.36552     -92928.027     -11086.389      268.46592     -10817.923      74153.38       6.2453124    
     29000   530.48571      24287.238     -11058.302      274.21407     -10784.088      74055.463      6.25357      
     29100   535.66408      10411.123     -11071.183      276.89083     -10794.292      74346.41       6.2290973    
     29200   505.83306      12404.083     -11050.26       261.47083     -10788.789      74435.248      6.2216629    
     29300   524.13148      24376.534     -11033.615      270.9295      -10762.685      74215.324      6.2400997    
     29400   547.8435       22500.928     -11039.662      283.18651     -10756.475      73885.062      6.2679926    
     29500   554.52899      17334.681     -11086.808      286.64231     -10800.166      73755.995      6.278961     
     29600   539.65672     -32738.564     -11078.459      278.95467     -10799.504      74186.417      6.2425311    
     29700   470.13229      10852.804     -11085.867      243.0167      -10842.851      74389.775      6.2254661    
     29800   418.59087      14574.82      -11072.893      216.37436     -10856.519      73995.854      6.2586077    
     29900   479.8773       22021.8       -11098.331      248.05401     -10850.277      73678.151      6.285595     
     30000   444.51309      14354.017     -11115.132      229.77385     -10885.358      73890.817      6.2675044    
     30001   441.27904      25924.286     -11114.998      228.10213     -10886.896      73897.139      6.2669682    
Loop time of 1485.42 on 16 procs for 20000 steps with 4000 atoms

Performance: 0.582 ns/day, 41.262 hours/ns, 13.464 timesteps/s, 53.857 katom-step/s
104.0% CPU use with 16 MPI tasks x 1 OpenMP threads

MPI task timing breakdown:
Section |  min time  |  avg time  |  max time  |%varavg| %total
---------------------------------------------------------------
Pair    | 419.03     | 425.01     | 432.82     |  20.3 | 28.61
Neigh   | 0.818      | 1.0505     | 1.3226     |  12.4 |  0.07
Comm    | 386.09     | 393.33     | 398.74     |  23.3 | 26.48
Output  | 5.6573     | 5.7607     | 6.0394     |   3.9 |  0.39
Modify  | 527.17     | 533.03     | 537.1      |  10.3 | 35.88
Other   |            | 127.2      |            |       |  8.57

Nlocal:            250 ave         257 max         238 min
Histogram: 1 0 0 3 2 0 2 3 4 1
Nghost:        2662.75 ave        2687 max        2650 min
Histogram: 5 2 1 2 1 1 1 2 0 1
Neighs:        30712.4 ave       31818 max       29100 min
Histogram: 1 0 0 3 2 0 4 3 2 1

Total # of neighbors = 491399
Ave neighs/atom = 122.84975
Neighbor list builds = 500
Dangerous builds = 0
=== Stage 3: Equilibration at 293K with NPT ===
Setting up Verlet run ...
  Unit style    : metal
  Current step  : 30001
  Time step     : 0.0005
Per MPI rank memory allocation (min/avg/max) = 3.957 | 3.975 | 3.991 Mbytes
   Step          Temp          Press          PotEng         KinEng         TotEng         Volume        Density    
     30001   441.27904      25924.286     -11114.998      228.10213     -10886.896      73897.139      6.2669682    
     30100   588.92843     -28563.164     -11089.918      304.42377     -10785.494      73694.004      6.2842429    
     30200   728.78326      4542.8615     -11079.195      376.71632     -10702.479      74295.522      6.2333639    
     30300   685.82962      19150.909     -11029.943      354.51309     -10675.43       74238.417      6.2381586    
     30400   633.18329     -32530.412     -11009.773      327.29961     -10682.473      74530.444      6.2137161    
     30500   654.77712     -81848.338     -10990.082      338.4617      -10651.62       74671.7        6.2019616    
     30600   827.39992      29655.49      -10954.21       427.69239     -10526.517      74408.163      6.2239276    
     30700   911.23479     -19330.713     -10962.945      471.02758     -10491.918      74281.828      6.234513     
     30800   859.24805      24371.773     -10926.944      444.15504     -10482.789      74481.012      6.2178401    
     30900   922.2146       6860.8411     -10885.626      476.70317     -10408.922      74275.353      6.2350565    
     31000   837.02598     -35479.673     -10894.019      432.6682      -10461.351      74057.445      6.2534026    
     31100   853.36254      26796.038     -10894.849      441.11276     -10453.736      74450.925      6.2203528    
     31200   787.96038     -81960.374     -10894.192      407.30564     -10486.886      74385.27       6.2258431    
     31300   811.09921     -17288.746     -10899.286      419.26636     -10480.02       73894.702      6.2671749    
     31400   729.05794     -5599.478      -10921.502      376.8583      -10544.644      73843.394      6.2715294    
     31500   813.15298     -7599.7176     -10938.157      420.32798     -10517.829      73853.344      6.2706845    
     31600   834.46353     -34690.831     -10951.674      431.34365     -10520.331      74300.554      6.2329417    
     31700   852.96148      23483.077     -10966.083      440.90545     -10525.178      74139.8        6.2464563    
     31800   678.58314      18095.072     -10982.462      350.76731     -10631.694      74300.699      6.2329295    
     31900   626.02313      16908.953     -11009.931      323.59844     -10686.333      74314.408      6.2317798    
     32000   615.2184       24875.134     -11038.1        318.01335     -10720.086      74107.785      6.2491548    
     32100   544.17311      29418.62      -11053.157      281.28924     -10771.867      73982.731      6.2597178    
     32200   495.24752      13703.574     -11032.507      255.99905     -10776.508      74466.725      6.219033     
     32300   591.73234      22019.95      -11063.45       305.87315     -10757.577      73643.897      6.2885187    
     32400   510.59495      1181.1165     -11045.567      263.93231     -10781.635      74157.016      6.2450062    
     32500   522.7599       12551.375     -11065.041      270.22051     -10794.82       74274.436      6.2351335    
     32600   537.05312      96297.781     -11060.974      277.60884     -10783.365      73672.387      6.2860868    
     32700   528.6477       13289.649     -11064.208      273.26398     -10790.944      74256.555      6.2366348    
     32800   510.94993      19666.591     -11038.484      264.1158      -10774.369      73912.047      6.2657041    
     32900   515.03785      15225.687     -11054.792      266.22889     -10788.563      73914.852      6.2654664    
     33000   590.41878      104552.44     -11070.983      305.19415     -10765.788      74047.441      6.2542474    
     33100   571.73279     -32884.954     -11059.355      295.53515     -10763.819      73880.188      6.2684061    
     33200   607.12396      13364.751     -11051.653      313.82925     -10737.824      74557.3        6.2114779    
     33300   489.55038      19357.719     -11073.72       253.05413     -10820.666      73791.287      6.275958     
     33400   460.43397      13226.608     -11065.491      238.00353     -10827.488      74207.274      6.2407767    
     33500   514.35781      10566.71      -11058.656      265.87738     -10792.779      74257.525      6.2365534    
     33600   536.97786      18590.689     -11060.618      277.56994     -10783.048      73957.413      6.2618608    
     33700   516.42212     -60315.447     -11059.97       266.94444     -10793.026      74353.258      6.2285236    
     33800   449.24928     -21333.137     -11067.687      232.22204     -10835.465      74432.905      6.2218587    
     33900   385.066        31165.081     -11073.268      199.04497     -10874.223      73915.639      6.2653997    
     34000   506.8832      -25991.302     -11087.611      262.01366     -10825.598      74088.016      6.2508222    
     34100   463.04062     -49703.353     -11072.734      239.35094     -10833.383      74062.073      6.2530119    
     34200   476.30494      15385.907     -11070.613      246.20742     -10824.405      74118.757      6.2482297    
     34300   443.95457     -49850.314     -11071.488      229.48514     -10842.003      74177.793      6.2432569    
     34400   422.20776      28642.191     -11071.772      218.24397     -10853.528      73851.329      6.2708556    
     34500   430.03974     -37232.648     -11084.522      222.29241     -10862.229      74001.432      6.2581359    
     34600   465.62314      24179.646     -11094.586      240.68587     -10853.9        74016.921      6.2568264    
     34700   493.26851     -78995.115     -11073.456      254.97608     -10818.48       73742.483      6.2801115    
     34800   495.95156      12344.844     -11113.887      256.36298     -10857.524      74203.351      6.2411066    
     34900   463.56206      13138.946     -11110.682      239.62048     -10871.061      73862.072      6.2699435    
     35000   450.37852     -48347.368     -11117.208      232.80576     -10884.402      73856.997      6.2703743    
     35100   468.59619      8165.4157     -11122.966      242.22268     -10880.743      74223.449      6.2394166    
     35200   394.85288     -51202.114     -11109.549      204.10392     -10905.445      74374.09       6.226779     
     35300   358.27603      9123.9988     -11114.936      185.19694     -10929.74       74190.472      6.24219      
     35400   403.12474     -54731.608     -11106.957      208.37974     -10898.578      74606.443      6.2073864    
     35500   424.69823      12200.767     -11114.84       219.53132     -10895.309      74187.02       6.2424804    
     35600   458.73867     -42718.759     -11100.692      237.12721     -10863.565      73757.691      6.2788166    
     35700   420.48757      13516.176     -11098.534      217.35478     -10881.18       74072.732      6.252112     
     35800   469.58017      21571.061     -11097.833      242.73131     -10855.101      73782.917      6.27667      
     35900   405.56443      23413.176     -11096.913      209.64084     -10887.272      73936.085      6.2636671    
     36000   479.38857      16577.801     -11097.263      247.80138     -10849.462      73873.194      6.2689996    
     36100   437.32999      20857.469     -11103.176      226.06082     -10877.115      73781.253      6.2768116    
     36200   434.85615      8630.8418     -11104.973      224.78207     -10880.191      74056.577      6.2534759    
     36300   396.08258      10502.708     -11103.84       204.73957     -10899.1        74096.708      6.250089     
     36400   417.16862     -43915.149     -11115.907      215.63918     -10900.268      74258.252      6.2364923    
     36500   450.74334     -39787.453     -11110.477      232.99434     -10877.483      73675.659      6.2858076    
     36600   415.51875     -73033.621     -11121.363      214.78635     -10906.577      74085.452      6.2510386    
     36700   418.58459     -18575.088     -11101.666      216.37111     -10885.295      74075.614      6.2518688    
     36800   463.15957      8919.6948     -11086.583      239.41242     -10847.171      74586.932      6.2090102    
     36900   555.08413      32146.997     -11078.73       286.92927     -10791.8        73867.923      6.2694469    
     37000   491.27863      12452.185     -11076.797      253.94749     -10822.849      74137.388      6.2466595    
     37100   484.76364      8039.4948     -11066.649      250.57981     -10816.07       73918.844      6.2651281    
     37200   455.07322      18140.657     -11076.359      235.2325      -10841.127      74400.923      6.2245333    
     37300   419.70442      35282.024     -11085.539      216.94997     -10868.589      73693.015      6.2843272    
     37400   463.43891     -49657.362     -11094.445      239.55682     -10854.888      73960.684      6.2615838    
     37500   412.33159      15384.596     -11103.659      213.13887     -10890.52       73882.851      6.2681801    
     37600   425.53652      26264.29      -11111.804      219.96465     -10891.839      74131.523      6.2471537    
     37700   413.09106      11175.151     -11110.27       213.53145     -10896.738      74499.563      6.2162918    
     37800   447.07903     -99167.038     -11099.851      231.10021     -10868.751      73953.115      6.2622246    
     37900   399.31454      1328.8928     -11110.55       206.41021     -10904.14       74251.061      6.2370963    
     38000   390.40125      13876.814     -11099.181      201.80283     -10897.378      74116.851      6.2483904    
     38100   517.99846      17128.726     -11107.602      267.75927     -10839.843      74728.132      6.1972781    
     38200   409.69461      22806.181     -11108.771      211.77578     -10896.995      73930.901      6.2641063    
     38300   480.07361     -14782.705     -11107.903      248.15548     -10859.747      73711.499      6.2827514    
     38400   404.19735      5139.5522     -11089.226      208.93419     -10880.292      74286.217      6.2341446    
     38500   432.84587     -33050.506     -11100.392      223.74293     -10876.649      74324.001      6.2309753    
     38600   415.05984      27286.211     -11080.325      214.54913     -10865.776      73986.156      6.2594281    
     38700   480.78137      26041.768     -11060.195      248.52133     -10811.674      73594.935      6.2927023    
     38800   538.04358      25074.756     -11072.709      278.12082     -10794.589      73843.034      6.2715601    
     38900   504.35116      12747.369     -11066.739      260.70483     -10806.034      74188.966      6.2423167    
     39000   462.21055     -18993.691     -11077.653      238.92187     -10838.731      74322.142      6.2311312    
     39100   409.1405      -1857.0819     -11096.965      211.48936     -10885.476      74197.943      6.2415615    
     39200   432.67696      15216.901     -11082.735      223.65562     -10859.079      73993.078      6.2588425    
     39300   415.45668      5249.5839     -11091.119      214.75426     -10876.365      74040.358      6.2548458    
     39400   484.91518      29853.099     -11110.281      250.65815     -10859.623      73916.973      6.2652866    
     39500   445.58449      4988.1938     -11103.068      230.32767     -10872.74       73966.825      6.261064     
     39600   401.21951      21870.797     -11095.865      207.3949      -10888.47       73893.006      6.2673188    
     39700   468.32431     -7458.2655     -11090.215      242.08214     -10848.133      73780.235      6.2768981    
     39800   478.38366     -38604.275     -11106.606      247.28193     -10859.324      73695.17       6.2841435    
     39900   552.04629      14312.681     -11105.146      285.35898     -10819.787      73988.892      6.2591966    
     40000   474.52262      13592.8       -11104.04       245.28612     -10858.754      74082.525      6.2512856    
     40100   401.873        14871.564     -11113.295      207.7327      -10905.562      73925.308      6.2645802    
     40200   400.18874      12363.801     -11119.863      206.86209     -10913.001      74037.598      6.255079     
     40300   382.68107      10126.893     -11127.625      197.81218     -10929.813      73783.297      6.2766377    
     40400   438.73332      16412.363     -11128.302      226.78622     -10901.515      73480.273      6.3025218    
     40500   402.64967      9108.8646     -11128.462      208.13417     -10920.328      74144.246      6.2460818    
     40600   365.56452      14515.776     -11122.458      188.96444     -10933.493      74105.51       6.2493467    
     40700   371.84325      8529.7951     -11132.581      192.20998     -10940.371      74250.889      6.2371108    
     40800   377.41156      16283.327     -11127.596      195.08831     -10932.508      73626.306      6.2900212    
     40900   364.21788      8183.8228     -11124.677      188.26834     -10936.408      74364.667      6.227568     
     41000   360.33482      12817.736     -11116.11       186.26115     -10929.848      73835.764      6.2721776    
     41100   386.75934     -9419.3397     -11133.605      199.92028     -10933.684      73827.107      6.272913     
     41200   394.03688      7501.0212     -11138.228      203.68212     -10934.546      74252.899      6.2369419    
     41300   423.65158      9058.9338     -11134.8        218.9903      -10915.81       74311.286      6.2320416    
     41400   394.3341       16613.859     -11142.637      203.83576     -10938.801      74250.547      6.2371396    
     41500   354.82115      13651.86      -11139.858      183.41107     -10956.447      74014.293      6.2570485    
     41600   384.72973      11780.592     -11137.471      198.87115     -10938.6        73923.112      6.2647663    
     41700   399.23395      11128.462     -11129.677      206.36855     -10923.308      74149.245      6.2456607    
     41800   345.11247      1040.0957     -11121.763      178.39254     -10943.37       74052.335      6.2538341    
     41900   404.71493     -25571.539     -11126.1        209.20173     -10916.898      74563.529      6.210959     
     42000   430.07479      25375.571     -11112.776      222.31053     -10890.466      73971.448      6.2606727    
     42100   380.88889      13356.332     -11095.919      196.88578     -10899.033      74074.168      6.2519909    
     42200   413.80735      10744.368     -11103.756      213.9017      -10889.854      74351.933      6.2286346    
     42300   435.42353      10189.686     -11093.454      225.07535     -10868.378      74351.688      6.2286551    
     42400   399.04961      32592.342     -11106.617      206.27326     -10900.344      73955.46       6.2620261    
     42500   422.72775     -90099.452     -11094.173      218.51276     -10875.661      74311.284      6.2320417    
     42600   566.6694       18211.615     -11112.2        292.91783     -10819.282      73554.053      6.2961999    
     42700   491.92346      11017.948     -11131.924      254.2808      -10877.643      74199.082      6.2414656    
     42800   389.30953     -38858.924     -11114.279      201.2385      -10913.04       73928.205      6.2643347    
     42900   399.59546      11691.306     -11117.013      206.55542     -10910.458      74061.36       6.253072     
     43000   384.78986      21124.863     -11112.648      198.90224     -10913.746      73803.136      6.2749504    
     43100   384.37922      14921.359     -11123.561      198.68997     -10924.871      73881.931      6.2682582    
     43200   401.06774     -19118.454     -11125.865      207.31646     -10918.549      73977.361      6.2601723    
     43300   437.73031     -54493.542     -11131.348      226.26775     -10905.081      74308.388      6.2322845    
     43400   346.37335      2913.3811     -11126.917      179.0443      -10947.873      74346.48       6.2290914    
     43500   343.00346      17967.073     -11111.97       177.30237     -10934.667      74111.068      6.248878     
     43600   419.83268      16268.315     -11118.26       217.01627     -10901.244      73876.765      6.2686965    
     43700   454.729        14461.324     -11115.146      235.05457     -10880.091      73703.833      6.2834048    
     43800   442.75282      13928.259     -11130.679      228.86395     -10901.815      73938.978      6.263422     
     43900   419.85257     -115368.77     -11129.07       217.02655     -10912.044      74120.761      6.2480608    
     44000   413.61302      28116.531     -11124.958      213.80125     -10911.157      73617.111      6.2908068    
     44100   406.41197      10861.296     -11122.918      210.07895     -10912.839      74091.733      6.2505087    
     44200   363.74381     -31025.013     -11123.323      188.02329     -10935.3        74036.538      6.2551685    
     44300   365.84087      7201.1248     -11140.14       189.10729     -10951.032      74156.693      6.2450334    
     44400   353.84399      60497.484     -11141.73       182.90596     -10958.824      74113.245      6.2486944    
     44500   354.28441      22208.464     -11117.991      183.13362     -10934.858      74228.554      6.2389875    
     44600   418.89417      24986.429     -11126.626      216.53114     -10910.095      73633.498      6.2894068    
     44700   372.96413      13714.261     -11134.271      192.78938     -10941.482      73735.921      6.2806704    
     44800   365.09538      12269.591     -11118.716      188.72194     -10929.995      73937.406      6.2635551    
     44900   444.94379     -23783.655     -11115.456      229.99648     -10885.459      73803.155      6.2749488    
     45000   421.31224      19230.054     -11105.508      217.78107     -10887.727      74115.817      6.2484776    
     45100   378.47533      5936.72       -11118.584      195.63818     -10922.946      74540.1        6.2129112    
     45200   397.32713      15200.697     -11126.477      205.38289     -10921.095      73858.751      6.2702254    
     45300   443.56299      12422.929     -11119.22       229.28273     -10889.937      74100.941      6.249732     
     45400   371.38074      10770.816     -11116.544      191.97091     -10924.573      74200.105      6.2413796    
     45500   353.50963      4675.2663     -11117.782      182.73313     -10935.049      74648.9        6.203856     
     45600   367.85291     -38450.176     -11119.154      190.14734     -10929.007      74150.669      6.2455407    
     45700   392.31357     -36643.856     -11115.137      202.79133     -10912.346      73580.804      6.2939108    
     45800   446.33741     -105975.11     -11106.891      230.71686     -10876.174      73546.8        6.2968208    
     45900   416.10196      11718.709     -11082.757      215.08781     -10867.669      74191.662      6.2420898    
     46000   436.20653      14371.272     -11104.045      225.4801      -10878.565      73921.994      6.264861     
     46100   423.12248      12243.544     -11094.267      218.7168      -10875.55       74078.05       6.2516633    
     46200   487.61767     -23453.736     -11128.645      252.0551      -10876.589      73704.104      6.2833817    
     46300   495.52142      6318.3844     -11120.568      256.14063     -10864.427      74452.246      6.2202424    
     46400   409.11334      14817.532     -11097.065      211.47532     -10885.59       73820.946      6.2734365    
     46500   369.20768     -48559.98      -11118.599      190.84763     -10927.751      74342.249      6.2294459    
     46600   357.40081     -56310.987     -11097.815      184.74452     -10913.071      74240.561      6.2379785    
     46700   441.44111      18115.874     -11100.694      228.1859      -10872.508      73798.582      6.2753377    
     46800   484.1          7190.2865     -11069.257      250.23677     -10819.02       74843.554      6.1877209    
     46900   499.16352      29388.396     -11039.565      258.02327     -10781.541      73610.59       6.291364     
     47000   536.47913      12196.434     -11070.018      277.31213     -10792.706      74361.584      6.2278262    
     47100   516.91149      33318.607     -11080.471      267.1974      -10813.274      74029.773      6.2557401    
     47200   442.23148     -39826.428     -11077.641      228.59446     -10849.046      74182.69       6.2428448    
     47300   442.14227      25924.35      -11074.176      228.54834     -10845.627      73931.008      6.2640972    
     47400   462.13728      23482.478     -11092.086      238.88399     -10853.202      74107.853      6.2491491    
     47500   484.47733     -28383.848     -11090.75       250.43181     -10840.318      74405.386      6.2241599    
     47600   491.16754     -42836.609     -11079.847      253.89006     -10825.957      73748.185      6.279626     
     47700   509.57258      12661.166     -11084.683      263.40383     -10821.279      74273.22       6.2352356    
     47800   491.31098     -32544.217     -11092.295      253.9642      -10838.331      74489.311      6.2171473    
     47900   462.50245      18779.396     -11124.987      239.07275     -10885.914      73970.537      6.2607498    
     48000   408.43582      9146.784      -11116.829      211.1251      -10905.704      74243.669      6.2377173    
     48100   352.85244      22967.57      -11123.611      182.39342     -10941.218      74169.38       6.2439651    
     48200   413.82401      28140.802     -11119.968      213.91032     -10906.058      73459.784      6.3042797    
     48300   389.07539      13347.084     -11141.144      201.11747     -10940.027      73938.684      6.2634469    
     48400   363.09603      3887.7453     -11133.998      187.68845     -10946.31       74261.544      6.2362159    
     48500   341.8513      -30622.71      -11109.004      176.70681     -10932.298      74347.67       6.2289917    
     48600   379.15727      30186.695     -11117.011      195.99068     -10921.021      74008.251      6.2575593    
     48700   404.29471      12635.314     -11105.603      208.98451     -10896.618      73970.146      6.2607829    
     48800   452.92061     -36539.649     -11108.565      234.11979     -10874.445      73785.728      6.2764308    
     48900   545.70559      21851.659     -11114.302      282.0814      -10832.221      73855.002      6.2705437    
     49000   431.55415      27152.709     -11093.435      223.07523     -10870.36       73912.692      6.2656495    
     49100   471.4253      -35478.454     -11083.39       243.68507     -10839.705      73594.533      6.2927367    
     49200   418.13922      6383.5654     -11082.503      216.1409      -10866.362      74234.888      6.2384551    
     49300   431.51095      18956.605     -11079.915      223.05289     -10856.862      73712.109      6.2826994    
     49400   535.59366      25746.104     -11059.093      276.85443     -10782.238      73576.387      6.2942887    
     49500   470.15398      11072.902     -11096.597      243.02791     -10853.57       74002.684      6.25803      
     49600   451.55583     -65463.14      -11086.762      233.41432     -10853.348      74312.927      6.2319039    
     49700   431.51621     -36727.182     -11087.03       223.05561     -10863.975      73766.227      6.2780901    
     49800   459.31929      18076.625     -11109.905      237.42734     -10872.478      73735.247      6.2807278    
     49900   471.44997      17491.488     -11105.232      243.69782     -10861.534      74104.971      6.2493921    
     50000   444.04827      14086.345     -11090.022      229.53358     -10860.488      74118.067      6.2482879    
     50001   441.19245      13307.505     -11090.032      228.05737     -10861.975      74112.272      6.2487765    
Loop time of 1441.9 on 16 procs for 20000 steps with 4000 atoms

Performance: 0.599 ns/day, 40.053 hours/ns, 13.871 timesteps/s, 55.482 katom-step/s
104.2% CPU use with 16 MPI tasks x 1 OpenMP threads

MPI task timing breakdown:
Section |  min time  |  avg time  |  max time  |%varavg| %total
---------------------------------------------------------------
Pair    | 403.85     | 411.3      | 418.27     |  22.1 | 28.52
Neigh   | 0.64823    | 0.76299    | 0.89934    |   9.4 |  0.05
Comm    | 367.33     | 379.84     | 392.74     |  34.8 | 26.34
Output  | 5.9301     | 6.0522     | 6.1251     |   2.2 |  0.42
Modify  | 509.61     | 519.06     | 526.65     |  26.1 | 36.00
Other   |            | 124.9      |            |       |  8.66

Nlocal:            250 ave         256 max         243 min
Histogram: 1 0 1 3 1 4 2 1 1 2
Nghost:        2659.31 ave        2669 max        2645 min
Histogram: 1 0 1 1 3 1 1 6 1 1
Neighs:        30567.4 ave       31133 max       29773 min
Histogram: 1 1 1 2 2 0 2 3 1 3

Total # of neighbors = 489079
Ave neighs/atom = 122.26975
Neighbor list builds = 359
Dangerous builds = 0
WARNING: Detected non-ASCII characters in input. Will try to continue by replacing with ASCII equivalents where known. (src/input.cpp:478)
Current density: 6.24877645327648 g/cm (target: 6.10)
Setting up Verlet run ...
  Unit style    : metal
  Current step  : 50001
  Time step     : 0.0005
Per MPI rank memory allocation (min/avg/max) = 3.957 | 3.975 | 3.991 Mbytes
   Step          Temp          Press          PotEng         KinEng         TotEng         Volume        Density    
     50001   441.19245      13307.505     -11090.032      228.05737     -10861.975      74112.272      6.2487765    
     50100   408.78807      17209.763     -11108.211      211.30718     -10896.903      73728.192      6.2813289    
     50200   387.81863      20319.307     -11129.73       200.46784     -10929.262      74069.868      6.2523538    
     50300   379.44334     -46430.822     -11139.03       196.13856     -10942.892      74277.224      6.2348994    
     50400   353.99631     -52297.124     -11123.122      182.9847      -10940.137      74186.83       6.2424965    
     50500   381.4504       12818.795     -11126.234      197.17603     -10929.058      73849.65       6.2709982    
     50600   382.83244      24253.337     -11136.47       197.89042     -10938.579      74089.556      6.2506923    
     50700   426.65352      26794.853     -11125.398      220.54203     -10904.856      74022.488      6.2563558    
     50800   417.21897      8488.8262     -11126.981      215.66521     -10911.316      74281.259      6.2345608    
     50900   433.06487      23925.903     -11102.605      223.85613     -10878.749      74028.511      6.2558467    
     51000   430.95688      31934.84      -11132.162      222.76649     -10909.396      73995.67       6.2586233    
     51100   412.69073     -44349.908     -11128.626      213.32451     -10915.302      73712.464      6.2826691    
     51200   356.9683       7902.712      -11126.21       184.52096     -10941.689      74358.072      6.2281203    
     51300   360.71287      14189.714     -11126.691      186.45657     -10940.235      73902.352      6.2665262    
     51400   374.0806       16846.1       -11127.891      193.3665      -10934.524      74322.904      6.2310673    
     51500   368.07906      12866.925     -11135.448      190.26423     -10945.184      73909.022      6.2659606    
     51600   381.50242     -22928.399     -11121.731      197.20292     -10924.528      74128.875      6.2473769    
     51700   410.90078      15972.655     -11132.986      212.39926     -10920.586      73680.445      6.2853994    
     51800   398.10008      11988.164     -11128.027      205.78244     -10922.244      73934.548      6.2637973    
     51900   342.49943      8955.9366     -11121.436      177.04183     -10944.394      74228.174      6.2390195    
     52000   348.82658     -26079.911     -11109.085      180.31241     -10928.772      74281.71       6.2345229    
     52100   368.626        17466.912     -11118.96       190.54695     -10928.413      73905.475      6.2662614    
     52200   394.10695     -8945.555      -11112.536      203.71835     -10908.818      74282.852      6.234427     
     52300   366.65096      12401.448     -11132.092      189.52603     -10942.566      74172.123      6.2437342    
     52400   391.80235      9758.7248     -11132.666      202.52707     -10930.139      74149.492      6.2456398    
     52500   396.96082     -47345.845     -11122.554      205.19354     -10917.361      73961.83       6.2614867    
     52600   349.92593     -56090.841     -11110.419      180.88067     -10929.539      74211.185      6.2404477    
     52700   363.90081     -6686.3183     -11116.817      188.10445     -10928.713      73554.232      6.2961845    
     52800   404.9523       7417.886      -11115.326      209.32443     -10906.001      74309.112      6.2322239    
     52900   364.88633      10312.171     -11121.383      188.61387     -10932.769      74250.869      6.2371124    
     53000   314.78901      9527.2489     -11118.92       162.718       -10956.202      74268.215      6.2356557    
     53100   384.35574      20290.634     -11125.173      198.67783     -10926.495      73921.255      6.2649237    
     53200   390.78865      15654.466     -11128.414      202.00308     -10926.41       74006.506      6.2577069    
     53300   428.61077     -7090.0496     -11132.811      221.55376     -10911.257      74221.278      6.2395991    
     53400   410.69796      8840.0236     -11126.731      212.29442     -10914.437      74407.813      6.2239569    
     53500   390.44472     -14278.673     -11110.679      201.82529     -10908.854      74134.253      6.2469237    
     53600   410.57836      13276.171     -11112.447      212.2326      -10900.215      74133.077      6.2470228    
     53700   462.32225      9184.7562     -11102.884      238.97961     -10863.905      74320.918      6.2312338    
     53800   445.75105     -45504.121     -11082.581      230.41377     -10852.168      73914.356      6.2655085    
     53900   428.30001      15809.089     -11076.647      221.39312     -10855.254      74394.54       6.2250673    
     54000   533.57866     -69592.967     -11071.852      275.81285     -10796.039      73911.604      6.2657417    
     54100   471.91699      15242.737     -11085.163      243.93923     -10841.224      73971.854      6.2606383    
     54200   457.88492     -21654.092     -11095.039      236.6859      -10858.353      73937.868      6.263516     
     54300   409.44866     -20575.256     -11087.41       211.64865     -10875.761      74269.802      6.2355225    
     54400   409.18592      13684.539     -11106.99       211.51283     -10895.477      74046.102      6.2543606    
     54500   428.45951     -50590.649     -11125.503      221.47557     -10904.028      74124.903      6.2477116    
     54600   388.11318      11668.707     -11135.82       200.6201      -10935.2        73968.335      6.2609361    
     54700   404.80454     -1644.1609     -11131.982      209.24805     -10922.734      73604.926      6.2918482    
     54800   371.10381      12575.431     -11141.257      191.82776     -10949.43       74193.204      6.2419602    
     54900   383.54851     -49421.214     -11148.927      198.26057     -10950.667      74064.091      6.2528415    
     55000   398.84648     -52269.06      -11139.465      206.16826     -10933.297      74319.233      6.2313751    
     55100   339.09049      19470.803     -11146.486      175.27972     -10971.206      74100.485      6.2497704    
     55200   367.62692      20377.064     -11147.695      190.03052     -10957.664      74284.674      6.2342741    
     55300   365.09642     -36723.573     -11126.956      188.72247     -10938.233      73949.315      6.2625465    
     55400   444.85434     -86452.173     -11110.38       229.95025     -10880.43       73792.17       6.275883     
     55500   448.93736     -6018.7378     -11112.945      232.0608      -10880.884      74119.4        6.2481755    
     55600   446.35285      20009.031     -11105.255      230.72484     -10874.53       74055.266      6.2535866    
     55700   404.14434      13879.56      -11109.3        208.90679     -10900.393      74009.359      6.2574656    
     55800   398.66767      23220.691     -11115.144      206.07583     -10909.068      73826.908      6.2729299    
     55900   370.21184      9209.193      -11107.981      191.36669     -10916.615      74214.007      6.2402104    
     56000   368.96481     -20982.08      -11127.485      190.72209     -10936.763      73718.456      6.2821585    
     56100   351.18507      9167.2104     -11140.187      181.53154     -10958.655      74031.949      6.2555562    
     56200   407.6696       16056.254     -11149.537      210.72903     -10938.808      74030.817      6.2556519    
     56300   430.15446      11267.393     -11149.632      222.35171     -10927.281      74045.022      6.2544518    
     56400   332.39345     -14186.64      -11134.519      171.81793     -10962.702      74067.326      6.2525684    
     56500   346.40827      8918.6064     -11121.669      179.06236     -10942.606      74167.503      6.2441231    
     56600   332.77375     -85104.496     -11095.841      172.01452     -10923.826      74524.65       6.2141992    
     56700   444.01015      5669.0393     -11096.044      229.51387     -10866.53       73942.848      6.2630942    
     56800   430.88864      26790.907     -11103.265      222.73122     -10880.534      73801.346      6.2751026    
     56900   407.3788       8683.8987     -11124.686      210.57871     -10914.107      73972.279      6.2606023    
     57000   394.74685     -37025.636     -11128.804      204.04911     -10924.754      73908.102      6.2660386    
     57100   363.24179      11694.931     -11143.746      187.76379     -10955.982      73998.736      6.2583639    
     57200   338.58099      8671.8686     -11135.449      175.01635     -10960.433      74192.96       6.2419807    
     57300   344.46111      20026.568     -11120.579      178.05585     -10942.523      74055.06       6.253604     
     57400   374.22178      13901.843     -11132.306      193.43947     -10938.866      74617.035      6.2065053    
     57500   403.24976      16526.562     -11112.817      208.44436     -10904.372      73808.027      6.2745347    
     57600   410.34229      13085.551     -11124.817      212.11057     -10912.707      74446.67       6.2207083    
     57700   354.56468     -17274.691     -11096.598      183.27849     -10913.32       73928.689      6.2642937    
     57800   385.28862      17982.378     -11093.344      199.16005     -10894.184      73639.792      6.2888693    
     57900   469.42207     -47602.546     -11076.307      242.64958     -10833.657      73685.756      6.2849463    
     58000   431.42944     -48017.802     -11104.425      223.01076     -10881.415      73722.802      6.2817881    
     58100   390.15934      22683.559     -11121.379      201.67778     -10919.701      74058.72       6.2532949    
     58200   355.49162      9738.6131     -11136.916      183.75764     -10953.158      74087.98       6.2508253    
     58300   354.22483     -38874.334     -11131.082      183.10283     -10947.979      74153.051      6.2453401    
     58400   363.13286      24847.3       -11142.086      187.70749     -10954.379      74128.615      6.2473988    
     58500   340.66573      11533.318     -11132.801      176.09397     -10956.707      74033.164      6.2554536    
     58600   344.2383       7933.5023     -11133.968      177.94067     -10956.028      74233.81       6.2385458    
     58700   416.62143      15224.518     -11136.509      215.35633     -10921.153      73871.728      6.2691239    
     58800   369.20386      10026.106     -11146.63       190.84566     -10955.784      74153.697      6.2452856    
     58900   351.89446     -31730.242     -11135.564      181.89823     -10953.666      74118.07       6.2482877    
     59000   405.59126      1738.6382     -11151.873      209.65471     -10942.219      74671.936      6.2019421    
     59100   362.07672     -45139.407     -11148.889      187.16155     -10961.727      73942.117      6.2631561    
     59200   333.50538      9244.3857     -11147.624      172.39271     -10975.232      74135.563      6.2468133    
     59300   381.12406      10250.605     -11136.447      197.00734     -10939.44       74097.544      6.2500185    
     59400   418.23054      12744.515     -11121.077      216.1881      -10904.889      74045.164      6.2544398    
     59500   385.26228     -49884.764     -11121.757      199.14643     -10922.61       73988.288      6.2592477    
     59600   451.26409      16616.477     -11127.852      233.26352     -10894.588      74003.461      6.2579644    
     59700   520.88145      6948.206      -11112.082      269.24952     -10842.832      74470.406      6.2187256    
     59800   419.43265     -46650.831     -11095.563      216.80948     -10878.753      74153.907      6.2452679    
     59900   432.72415      23642.678     -11123.184      223.68001     -10899.503      74016.457      6.2568655    
     60000   393.67083     -37975.423     -11110.489      203.49291     -10906.996      74332.192      6.2302887    
     60100   397.91538     -55183.348     -11087.85       205.68696     -10882.163      74077.587      6.2517023    
     60200   471.18071     -44315.681     -11092.761      243.55864     -10849.202      74333.645      6.2301669    
     60300   529.1394       16065.574     -11102.058      273.51815     -10828.54       73948.63       6.2626045    
     60400   544.5798       36444.078     -11097.909      281.49946     -10816.409      73982.978      6.2596969    
     60500   456.22102     -30887.681     -11092.67       235.82581     -10856.845      74301.832      6.2328345    
     60600   485.47662      24201.667     -11088.225      250.94836     -10837.276      74256.424      6.2366459    
     60700   459.94575      6731.6409     -11083.173      237.75116     -10845.422      74634.02       6.2050928    
     60800   395.71646      15716.842     -11070.823      204.55032     -10866.273      74087.339      6.2508794    
[...]
     70500   642.46702     -147120.05     -11025.039      332.09847     -10692.94       74128.271      6.2474278    
     70600   821.59876      19528.09      -11015.005      424.6937      -10590.311      74128.271      6.2474278    
     70700   731.82777      5077.1038     -11008.096      378.29006     -10629.806      74128.271      6.2474278    
     70800   699.36119      23446.284     -10970.889      361.50771     -10609.381      74128.271      6.2474278    
     70900   732.07014     -9143.1349     -10990.877      378.41534     -10612.462      74128.271      6.2474278    
     71000   671.84008     -100425.92     -11002.334      347.28174     -10655.052      74128.271      6.2474278    
     71100   699.4157      -17413.449     -11003.422      361.53589     -10641.886      74128.271      6.2474278    
     71200   600.88624     -21925.29      -11005.065      310.6049      -10694.46       74128.271      6.2474278    
     71300   585.56514      18325.763     -11022.452      302.68525     -10719.767      74128.271      6.2474278    
     71400   587.39134     -38712.221     -11035.07       303.62923     -10731.441      74128.271      6.2474278    
     71500   604.18027      21900.137     -11050.941      312.30762     -10738.633      74128.271      6.2474278    
     71600   580.30329      17515.81      -11054.173      299.96534     -10754.208      74128.271      6.2474278    
     71700   546.67002      21783.861     -11061.913      282.57992     -10779.334      74128.271      6.2474278    
     71800   611.57722     -25757.583     -11045.477      316.13119     -10729.346      74128.271      6.2474278    
     71900   544.43428      16703.468     -11032.489      281.42424     -10751.065      74128.271      6.2474278    
     72000   513.05137      41233.15      -11049.998      265.20206     -10784.795      74128.271      6.2474278    
     72100   527.69907      6887.7282     -11048.85       272.77362     -10776.076      74128.271      6.2474278    
     72200   545.14342     -35350.056     -11042.349      281.7908      -10760.559      74128.271      6.2474278    
     72300   630.86604      16922.222     -11055.942      326.1018      -10729.84       74128.271      6.2474278    
     72400   552.24058      18570.52      -11039.731      285.45941     -10754.271      74128.271      6.2474278    
     72500   623.38267     -65777.919     -11060.707      322.23356     -10738.473      74128.271      6.2474278    
     72600   522.56609      17923.18      -11049.76       270.12033     -10779.639      74128.271      6.2474278    
     72700   509.95321      21180.705     -11058.571      263.60059     -10794.97       74128.271      6.2474278    
     72800   534.70987      13447.259     -11060.624      276.39758     -10784.227      74128.271      6.2474278    
     72900   557.0551       24773.62      -11052.251      287.94809     -10764.303      74128.271      6.2474278    
     73000   552.94562     -6084.2303     -11056.097      285.82385     -10770.274      74128.271      6.2474278    
     73100   538.62183      25391.182     -11039.703      278.41972     -10761.283      74128.271      6.2474278    
     73200   467.66547      14756.55      -11067.581      241.74158     -10825.839      74128.271      6.2474278    
     73300   457.04287     -53634.123     -11075.806      236.25063     -10839.555      74128.271      6.2474278    
     73400   494.98864     -30651.619     -11063.878      255.86523     -10808.012      74128.271      6.2474278    
     73500   610.21635      36234.08      -11081.822      315.42774     -10766.395      74128.271      6.2474278    
     73600   586.61732     -69782.242     -11069.651      303.22913     -10766.422      74128.271      6.2474278    
     73700   542.92298      13480.885     -11067.332      280.64303     -10786.689      74128.271      6.2474278    
     73800   454.64747      16102.401     -11054.293      235.01242     -10819.281      74128.271      6.2474278    
     73900   555.4942      -41194.049     -11061.51       287.14124     -10774.369      74128.271      6.2474278    
     74000   569.25344     -14279.536     -11063.776      294.25355     -10769.523      74128.271      6.2474278    
     74100   541.22343      14394.815     -11061.154      279.76452     -10781.389      74128.271      6.2474278    
     74200   525.95283     -31817.045     -11041.806      271.87097     -10769.935      74128.271      6.2474278    
     74300   659.11545      16933.444     -11042.73       340.70424     -10702.026      74128.271      6.2474278    
     74400   516.13087     -76878.374     -11054.707      266.79389     -10787.913      74128.271      6.2474278    
     74500   642.54458     -47014.042     -11039.482      332.13856     -10707.343      74128.271      6.2474278    
     74600   573.72912      14032.05      -11054.084      296.56708     -10757.516      74128.271      6.2474278    
     74700   586.5719       22152.514     -11059.319      303.20566     -10756.113      74128.271      6.2474278    
     74800   560.2202       16763.093     -11068.696      289.58416     -10779.111      74128.271      6.2474278    
     74900   557.00305      16960.247     -11091.571      287.92118     -10803.65       74128.271      6.2474278    
     75000   487.72237      11801.313     -11087.222      252.10921     -10835.113      74128.271      6.2474278    
     75100   502.91257      5524.4109     -11093.005      259.9612      -10833.044      74128.271      6.2474278    
     75200   501.23449     -62313.584     -11081          259.09378     -10821.906      74128.271      6.2474278    
     75300   443.60802     -8438.7682     -11081.711      229.30601     -10852.405      74128.271      6.2474278    
     75400   439.33987      13430.437     -11083.028      227.09975     -10855.928      74128.271      6.2474278    
     75500   580.28611     -22503.237     -11090.965      299.95646     -10791.009      74128.271      6.2474278    
     75600   515.90738     -15398.782     -11076.521      266.67836     -10809.842      74128.271      6.2474278    
     75700   506.88777      13372.94      -11090.444      262.01603     -10828.428      74128.271      6.2474278    
     75800   541.46773      12306.473     -11096.153      279.8908      -10816.262      74128.271      6.2474278    
     75900   430.78691      18143.543     -11081.854      222.67863     -10859.175      74128.271      6.2474278    
     76000   477.16227      27179.21      -11099.556      246.65058     -10852.905      74128.271      6.2474278    
     76100   451.60955     -19434.225     -11102.194      233.44209     -10868.752      74128.271      6.2474278    
     76200   435.21133      12710.713     -11115.72       224.96566     -10890.755      74128.271      6.2474278    
     76300   431.04529     -52647.526     -11136.455      222.81219     -10913.643      74128.271      6.2474278    
     76400   416.18852      10388.939     -11149.081      215.13256     -10933.949      74128.271      6.2474278    
     76500   328.75553     -44867.825     -11133.996      169.93745     -10964.059      74128.271      6.2474278    
     76600   432.49921      10830.532     -11142.834      223.56374     -10919.27       74128.271      6.2474278    
     76700   400.96083      7633.2046     -11138.484      207.26119     -10931.223      74128.271      6.2474278    
     76800   382.02437     -13657.03      -11128.356      197.47272     -10930.883      74128.271      6.2474278    
     76900   428.99506     -54270.611     -11127.822      221.7524      -10906.07       74128.271      6.2474278    
     77000   420.33597      23101.364     -11117.276      217.27642     -10900          74128.271      6.2474278    
     77100   411.38559     -52707.421     -11115.569      212.64987     -10902.919      74128.271      6.2474278    
     77200   378.59817      10940.807     -11108.902      195.70168     -10913.2        74128.271      6.2474278    
     77300   461.75684     -41908.347     -11096.142      238.68734     -10857.455      74128.271      6.2474278    
     77400   465.69039      18150.14      -11105.466      240.72063     -10864.746      74128.271      6.2474278    
     77500   443.40346     -47412.737     -11127.026      229.20027     -10897.825      74128.271      6.2474278    
     77600   440.91228     -12091.647     -11119.887      227.91255     -10891.974      74128.271      6.2474278    
     77700   401.70821      11601.497     -11131.15       207.64752     -10923.503      74128.271      6.2474278    
     77800   382.96214      9736.1766     -11143.889      197.95746     -10945.932      74128.271      6.2474278    
     77900   357.36804      7617.9073     -11138.409      184.72759     -10953.681      74128.271      6.2474278    
     78000   346.86944     -57213.738     -11137.619      179.30074     -10958.318      74128.271      6.2474278    
     78100   351.18596      13755.709     -11132.276      181.532       -10950.744      74128.271      6.2474278    
     78200   413.99128      16378.911     -11134.928      213.99678     -10920.932      74128.271      6.2474278    
     78300   435.01349     -19732.441     -11111.454      224.8634      -10886.591      74128.271      6.2474278    
     78400   384.67948      47008.592     -11113.849      198.84518     -10915.004      74128.271      6.2474278    
     78500   330.36125      8038.1263     -11128.154      170.76747     -10957.387      74128.271      6.2474278    
     78600   374.91949      20991.972     -11116.949      193.80013     -10923.149      74128.271      6.2474278    
     78700   405.3187       16031.776     -11088.316      209.51382     -10878.802      74128.271      6.2474278    
     78800   503.19308     -44759.177     -11079.257      260.1062      -10819.151      74128.271      6.2474278    
     78900   483.26836     -49401.368     -11080.629      249.80689     -10830.822      74128.271      6.2474278    
     79000   485.2124       19477.21      -11098.578      250.81178     -10847.766      74128.271      6.2474278    
     79100   580.98648      13152.86      -11126.011      300.31849     -10825.692      74128.271      6.2474278    
     79200   481.78953      18067.61      -11131.657      249.04246     -10882.614      74128.271      6.2474278    
     79300   358.50179      18537.741     -11119.537      185.31364     -10934.223      74128.271      6.2474278    
     79400   356.20506      10871.199     -11118.019      184.12643     -10933.892      74128.271      6.2474278    
     79500   395.03178      10646.221     -11127.826      204.1964      -10923.629      74128.271      6.2474278    
     79600   480.82061      21880.167     -11102.198      248.54161     -10853.656      74128.271      6.2474278    
     79700   452.65865     -11323.482     -11110.67       233.98438     -10876.686      74128.271      6.2474278    
     79800   445.03205      1431.8957     -11113.415      230.04211     -10883.373      74128.271      6.2474278    
     79900   454.7058       18660.46      -11114.472      235.04257     -10879.429      74128.271      6.2474278    
     80000   432.93515     -49594.196     -11112.799      223.78908     -10889.01       74128.271      6.2474278    
     80100   438.7607       10811.792     -11117.749      226.80038     -10890.949      74128.271      6.2474278    
     80200   411.05294      16252.981     -11137.271      212.47792     -10924.793      74128.271      6.2474278    
     80300   373.32865     -36990.604     -11129.239      192.97781     -10936.261      74128.271      6.2474278    
     80400   395.96282     -34871.61      -11131.661      204.67766     -10926.983      74128.271      6.2474278    
     80500   382.15127      17556.082     -11119.007      197.53832     -10921.468      74128.271      6.2474278    
     80600   431.73191      14140.571     -11120.03       223.16711     -10896.863      74128.271      6.2474278    
     80700   422.46881     -4534.7575     -11120.027      218.37891     -10901.648      74128.271      6.2474278    
     80800   461.06135      11166.925     -11136.49       238.32783     -10898.162      74128.271      6.2474278    
     80900   411.13376      9794.8306     -11112.5        212.51969     -10899.981      74128.271      6.2474278    
     81000   426.00037      12017.474     -11118.685      220.20441     -10898.481      74128.271      6.2474278    
     81100   406.85508      12723.96      -11095.041      210.308       -10884.733      74128.271      6.2474278    
     81200   406.37153      27608.157     -11085.449      210.05805     -10875.391      74128.271      6.2474278    
     81300   438.97892      20693.758     -11081.916      226.91318     -10855.003      74128.271      6.2474278    
     81400   488.76781     -35685.85      -11082.401      252.64962     -10829.751      74128.271      6.2474278    
     81500   507.70343      11232.41      -11079.589      262.43765     -10817.151      74128.271      6.2474278    
     81600   496.17615      11806.162     -11105.776      256.47907     -10849.297      74128.271      6.2474278    
     81700   448.76211     -42264.082     -11119.489      231.97022     -10887.519      74128.271      6.2474278    
     81800   435.25181      11317.108     -11116.597      224.98659     -10891.611      74128.271      6.2474278    
     81900   477.75464      17037.961     -11140.934      246.95678     -10893.977      74128.271      6.2474278    
     82000   471.64775      15482.833     -11145.588      243.80006     -10901.788      74128.271      6.2474278    
     82100   387.86925     -9382.8145     -11142.045      200.49401     -10941.551      74128.271      6.2474278    
     82200   351.00186      8968.4769     -11139.109      181.43684     -10957.672      74128.271      6.2474278    
     82300   473.09024      11499.711     -11129.482      244.5457      -10884.936      74128.271      6.2474278    
     82400   411.04099      10076.93      -11132.699      212.47174     -10920.228      74128.271      6.2474278    
     82500   384.81998      35452.937     -11133.819      198.9178      -10934.902      74128.271      6.2474278    
     82600   355.54802      9813.9997     -11136.805      183.7868      -10953.018      74128.271      6.2474278    
     82700   370.29986      10121.298     -11126.561      191.41219     -10935.148      74128.271      6.2474278    
     82800   412.70612     -54189.391     -11126.854      213.33246     -10913.522      74128.271      6.2474278    
     82900   403.57481      20034.812     -11123.111      208.61239     -10914.499      74128.271      6.2474278    
     83000   398.99639     -32182.13      -11084.937      206.24575     -10878.691      74128.271      6.2474278    
     83100   481.6697      -27333.23      -11102.272      248.98052     -10853.291      74128.271      6.2474278    
     83200   447.75339      12773.842     -11107.982      231.4488      -10876.533      74128.271      6.2474278    
     83300   421.45942      28332.056     -11116.215      217.85715     -10898.357      74128.271      6.2474278    
     83400   400.70329      10639.944     -11124.386      207.12806     -10917.258      74128.271      6.2474278    
     83500   465.47199      1752.2663     -11121.463      240.60774     -10880.855      74128.271      6.2474278    
     83600   386.7897       15844.47      -11108.515      199.93597     -10908.579      74128.271      6.2474278    
     83700   398.64897      17860.993     -11102.77       206.06616     -10896.704      74128.271      6.2474278    
     83800   391.746        10648.626     -11101.209      202.49794     -10898.711      74128.271      6.2474278    
     83900   428.5264       21475.723     -11102.512      221.51015     -10881.002      74128.271      6.2474278    
     84000   456.38031      74367.823     -11077.683      235.90815     -10841.775      74128.271      6.2474278    
     84100   461.25328      13948.446     -11076.297      238.42704     -10837.87       74128.271      6.2474278    
     84200   451.95569     -49310.342     -11082.846      233.62101     -10849.225      74128.271      6.2474278    
     84300   420.29656      14189.295     -11089.968      217.25605     -10872.712      74128.271      6.2474278    
     84400   433.82008      21959.606     -11092.624      224.24651     -10868.377      74128.271      6.2474278    
     84500   477.24598     -55833.366     -11103.222      246.69385     -10856.528      74128.271      6.2474278    
     84600   400.75767      12655.202     -11090.437      207.15618     -10883.281      74128.271      6.2474278    
     84700   445.92954      13897.91      -11111.996      230.50603     -10881.49       74128.271      6.2474278    
     84800   480.62352      22988.817     -11118.961      248.43974     -10870.522      74128.271      6.2474278    
     84900   462.41195      10654.616     -11138.541      239.02597     -10899.515      74128.271      6.2474278    
     85000   407.98697     -51406.038     -11138.752      210.89309     -10927.859      74128.271      6.2474278    
     85100   521.09588      24425.177     -11131.238      269.36036     -10861.877      74128.271      6.2474278    
     85200   378.56077      22167.977     -11116.951      195.68235     -10921.269      74128.271      6.2474278    
     85300   371.59969      9322.319      -11111.038      192.08409     -10918.953      74128.271      6.2474278    
     85400   418.5929       22574.042     -11100.989      216.37541     -10884.614      74128.271      6.2474278    
     85500   386.13471      8666.3137     -11095.218      199.5974      -10895.621      74128.271      6.2474278    
     85600   460.74761     -4916.1557     -11097.858      238.16566     -10859.693      74128.271      6.2474278    
     85700   451.51667      12038.775     -11100.375      233.39408     -10866.981      74128.271      6.2474278    
     85800   493.8316       11470.986     -11119.218      255.26714     -10863.951      74128.271      6.2474278    
     85900   443.84013      12003.977     -11107.753      229.42599     -10878.327      74128.271      6.2474278    
     86000   363.42097      10856.732     -11104.938      187.85641     -10917.082      74128.271      6.2474278    
     86100   449.43401      14113.18      -11112.087      232.31753     -10879.77       74128.271      6.2474278    
     86200   452.99183      12667.07      -11112.047      234.1566      -10877.89       74128.271      6.2474278    
     86300   446.24563      9880.025      -11105.262      230.66942     -10874.592      74128.271      6.2474278    
     86400   441.81209      11761.738     -11121.564      228.37767     -10893.187      74128.271      6.2474278    
     86500   398.50262      7945.1553     -11120.535      205.99051     -10914.544      74128.271      6.2474278    
     86600   366.95794      16771.487     -11115.855      189.68471     -10926.17       74128.271      6.2474278    
     86700   457.19704      23102.135     -11093.554      236.33032     -10857.223      74128.271      6.2474278    
     86800   585.92629      13046.856     -11109.858      302.87193     -10806.986      74128.271      6.2474278    
     86900   370.79546      11333.394     -11107.334      191.66837     -10915.666      74128.271      6.2474278    
     87000   451.95135      17440.653     -11124.457      233.61877     -10890.838      74128.271      6.2474278    
     87100   426.21661      9918.2728     -11151.902      220.31619     -10931.586      74128.271      6.2474278    
     87200   381.45899     -43044.316     -11142.793      197.18047     -10945.612      74128.271      6.2474278    
     87300   446.07347      28066.43      -11163.223      230.58043     -10932.643      74128.271      6.2474278    
     87400   403.82103      9133.6929     -11135.247      208.73966     -10926.507      74128.271      6.2474278    
