LAMMPS (22 Jul 2025 - Update 2)
OMP_NUM_THREADS environment is not set. Defaulting to 1 thread.
  using 1 OpenMP thread(s) per MPI task
Lattice spacing in x,y,z = 4.52 4.52 4.52
Created orthogonal box = (0 0 0) to (45.2 45.2 45.2)
  2 by 2 by 3 MPI processor grid
Created 4000 atoms
  using lattice units in orthogonal box = (0 0 0) to (45.2 45.2 45.2)
  create_atoms CPU = 0.001 seconds
Neighbor list info ...
  update: every = 1 steps, delay = 0 steps, check = yes
  max neighbors/atom: 2000, page size: 100000
  master list distance cutoff = 10.3
  ghost atom cutoff = 10.3
  binsize = 5.15, bins = 9 9 9
  1 neighbor lists, perpetual/occasional/extra = 1 0 0
  (1) pair eam/alloy, perpetual
      attributes: half, newton on
      pair build: half/bin/atomonly/newton
      stencil: half/bin/3d
      bin: standard
Setting up cg style minimization ...
  Unit style    : metal
  Current step  : 0
Per MPI rank memory allocation (min/avg/max) = 4.552 | 4.556 | 4.565 Mbytes
   Step          Temp          E_pair         E_mol          TotEng         Press     
         0   293           -3357.4993      0             -3206.0442     -18978.037    
         1   293           -3357.4993      0             -3206.0442     -18978.037    
Loop time of 0.00715711 on 12 procs for 1 steps with 4000 atoms

105.4% CPU use with 12 MPI tasks x 1 OpenMP threads

Minimization stats:
  Stopping criterion = linesearch alpha is zero
  Energy initial, next-to-last, final = 
     -3357.49925183568  -3357.49925183568  -3357.49925183568
  Force two-norm initial, final = 1.1541917e-13 1.1541917e-13
  Force max component initial, final = 3.6116943e-15 3.6116943e-15
  Final line search alpha, max atom move = 0.5 1.8058471e-15
  Iterations, force evaluations = 1 2

MPI task timing breakdown:
Section |  min time  |  avg time  |  max time  |%varavg| %total
---------------------------------------------------------------
Pair    | 0.0065974  | 0.0066194  | 0.0066434  |   0.0 | 92.49
Neigh   | 0          | 0          | 0          |   0.0 |  0.00
Comm    | 0.00029433 | 0.00032208 | 0.00034785 |   0.0 |  4.50
Output  | 0          | 0          | 0          |   0.0 |  0.00
Modify  | 0          | 0          | 0          |   0.0 |  0.00
Other   |            | 0.0002156  |            |       |  3.01

Nlocal:        333.333 ave         350 max         300 min
Histogram: 4 0 0 0 0 0 0 0 0 8
Nghost:        2494.33 ave        2588 max        2357 min
Histogram: 4 0 0 0 0 0 0 4 0 4
Neighs:        33333.3 ave       35540 max       30716 min
Histogram: 4 0 0 0 0 0 4 0 0 4

Total # of neighbors = 400000
Ave neighs/atom = 100
Neighbor list builds = 0
Dangerous builds = 0
Neighbor list info ...
  update: every = 1 steps, delay = 0 steps, check = yes
  max neighbors/atom: 2000, page size: 100000
  master list distance cutoff = 10.3
  ghost atom cutoff = 10.3
  binsize = 5.15, bins = 9 9 9
  2 neighbor lists, perpetual/occasional/extra = 1 1 0
  (1) pair eam/alloy, perpetual
      attributes: half, newton on
      pair build: half/bin/atomonly/newton
      stencil: half/bin/3d
      bin: standard
  (2) compute rdf, occasional, copy from (1)
      attributes: half, newton on
      pair build: copy
      stencil: none
      bin: none
Setting up Verlet run ...
  Unit style    : metal
  Current step  : 1
  Time step     : 0.001
Per MPI rank memory allocation (min/avg/max) = 3.927 | 3.931 | 3.94 Mbytes
   Step          Temp          Press          PotEng         KinEng         TotEng         Volume        Density    
         1   293           -18978.037     -3357.4993      151.45502     -3206.0442      92345.408      5.014987     
       100   217.0836      -20456.61      -3292.7167      112.21297     -3180.5038      92345.408      5.014987     
       200   326.39523     -15212.734     -3308.8679      168.71739     -3140.1505      92345.408      5.014987     
       300   2002.6025      20124.894     -3179.5907      1035.1679     -2144.4228      92345.408      5.014987     
       400   9830.4249     -54594.466     -3144.0027      5081.4579      1937.4552      92345.408      5.014987     
       500   20574.685     -59047.637     -2515.7517      10635.288      8119.5362      92345.408      5.014987     
       600   23560.814      240916.12     -2774.1164      12178.851      9404.735       92345.408      5.014987     
       700   20370.598      21611.739     -3177.6979      10529.793      7352.0948      92345.408      5.014987     
WARNING: A per-atom density exceeded rhomax of EAM potential table - a linear extrapolation to the energy was made (src/MANYBODY/pair_eam.cpp:335)
       800   17379.312      97634.226     -3439.5029      8983.5632      5544.0603      92345.408      5.014987     
       900   17368.845      37725.618     -3602.0095      8978.1525      5376.1429      92345.408      5.014987     
      1000   15903.669      71135.28      -3429.8339      8220.7863      4790.9524      92345.408      5.014987     
      1100   17063.096     -124822.46     -3441.3013      8820.1074      5378.8061      92345.408      5.014987     
      1200   15462.012      150630.7      -3574.0959      7992.4888      4418.3929      92345.408      5.014987     
      1300   15063.235      137816.27     -3661.268       7786.3567      4125.0886      92345.408      5.014987     
      1400   14113.618      62115.127     -3549.1188      7295.4891      3746.3704      92345.408      5.014987     
      1500   13684.705      64791.925     -3733.477       7073.779       3340.302       92345.408      5.014987     
      1600   13813.995      175489.94     -3693.2439      7140.6102      3447.3662      92345.408      5.014987     
      1700   12989.074     -30890.929     -3789.3917      6714.1992      2924.8075      92345.408      5.014987     
      1800   12890.248      65959.342     -3802.2525      6663.1151      2860.8627      92345.408      5.014987     
      1900   12585.801      6613.8173     -3668.2527      6505.7432      2837.4905      92345.408      5.014987     
      2000   11567.503     -152627.87     -3887.3711      5979.3734      2092.0023      92345.408      5.014987     
      2100   12121.627     -71869.746     -3860.3146      6265.8062      2405.4916      92345.408      5.014987     
      2200   11779.558     -158867.61     -3686.0437      6088.9867      2402.9431      92345.408      5.014987     
      2300   11730.988     -23254.542     -3920.0331      6063.8807      2143.8477      92345.408      5.014987     
      2400   12143.41       82134.077     -3469.0868      6277.0661      2807.9792      92345.408      5.014987     
      2500   11943.234      111083.59     -3873.9248      6173.593       2299.6681      92345.408      5.014987     
      2600   11171.814     -63475.021     -3939.0316      5774.837       1835.8053      92345.408      5.014987     
      2700   12018.633      66447.69      -3918.3458      6212.5673      2294.2215      92345.408      5.014987     
      2800   9775.8636      165186.62     -4007.3352      5053.2545      1045.9193      92345.408      5.014987     
      2900   10185.483      5342.0823     -3990.3735      5264.9914      1274.6178      92345.408      5.014987     
      3000   10365.189     -150887.38     -4024.3026      5357.8836      1333.5811      92345.408      5.014987     
      3100   10131.382      178587.67     -3825.4202      5237.026       1411.6057      92345.408      5.014987     
      3200   8881.6233     -67790.231     -4239.0567      4591.0116      351.95492      92345.408      5.014987     
      3300   11499.141      137256.47     -3574.0196      5944.0359      2370.0163      92345.408      5.014987     
      3400   9525.4252      59815.368     -4086.4353      4923.8001      837.36477      92345.408      5.014987     
      3500   9797.6979      48552.395     -4137.9423      5064.5409      926.59862      92345.408      5.014987     
      3600   10231.058     -29982.907     -4305.674       5288.5496      982.87563      92345.408      5.014987     
      3700   9529.8633     -18838.747     -3841.7242      4926.0942      1084.37        92345.408      5.014987     
      3800   8854.3622      65048.995     -4203.9041      4576.92        373.01595      92345.408      5.014987     
      3900   8906.202       50940.428     -4173.0349      4603.7166      430.68171      92345.408      5.014987     
      4000   10052.818     -54091.804     -4031.7692      5196.4154      1164.6462      92345.408      5.014987     
      4100   8946.669       50441.416     -4090.8045      4624.6345      533.83003      92345.408      5.014987     
      4200   9496.14       -23409.372     -4160.9122      4908.6623      747.75007      92345.408      5.014987     
      4300   9881.1931      49857.73      -4198.8844      5107.7005      908.81617      92345.408      5.014987     
      4400   9243.3331      5558.595      -4048.7522      4777.9835      729.23131      92345.408      5.014987     
      4500   8303.9704     -6687.6132     -4445.7914      4292.4163     -153.37512      92345.408      5.014987     
      4600   9814.288       137394.95     -4014.4414      5073.1165      1058.6751      92345.408      5.014987     
      4700   8783.3851      166552.77     -4340.77        4540.2312      199.46121      92345.408      5.014987     
      4800   8846.876       102456.81     -4224.6936      4573.0504      348.35678      92345.408      5.014987     
      4900   8888.8675      198818.82     -4290.1513      4594.7562      304.60492      92345.408      5.014987     
      5000   10047.373     -32062.463     -4082.3007      5193.601       1111.3003      92345.408      5.014987     
      5001   10269.586      26219.261     -4082.2351      5308.4651      1226.23        92345.408      5.014987     
Loop time of 38.2905 on 12 procs for 5000 steps with 4000 atoms

Performance: 11.282 ns/day, 2.127 hours/ns, 130.581 timesteps/s, 522.322 katom-step/s
104.3% CPU use with 12 MPI tasks x 1 OpenMP threads

MPI task timing breakdown:
Section |  min time  |  avg time  |  max time  |%varavg| %total
---------------------------------------------------------------
Pair    | 18         | 18.565     | 19.125     |   7.6 | 48.48
Neigh   | 0.77024    | 0.88551    | 0.96931    |   7.4 |  2.31
Comm    | 12.079     | 12.628     | 13.426     |  11.7 | 32.98
Output  | 0.11782    | 0.12566    | 0.13139    |   1.2 |  0.33
Modify  | 3.1183     | 3.5471     | 3.9903     |  12.9 |  9.26
Other   |            | 2.539      |            |       |  6.63

Nlocal:        333.333 ave         358 max         314 min
Histogram: 2 2 0 2 0 0 4 1 0 1
Nghost:        2545.08 ave        2584 max        2506 min
Histogram: 2 0 1 2 1 2 1 1 0 2
Neighs:        32971.2 ave       37212 max       29620 min
Histogram: 1 1 2 2 1 2 1 1 0 1

Total # of neighbors = 395655
Ave neighs/atom = 98.91375
Neighbor list builds = 533
Dangerous builds = 0
Setting up Verlet run ...
  Unit style    : metal
  Current step  : 5001
  Time step     : 0.001
Per MPI rank memory allocation (min/avg/max) = 3.928 | 3.932 | 3.94 Mbytes
   Step          Temp          Press          PotEng         KinEng         TotEng         Volume        Density    
      5001   10269.586      26219.261     -4082.2351      5308.4651      1226.23        92345.408      5.014987     
      5100   25005.018      248570.91     -2668.6035      12925.377      10256.774      92345.408      5.014987     
      5200   24710.298     -106955.64     -2870.4068      12773.033      9902.6262      92345.408      5.014987     
      5300   19930.188      234212.8      -3406.2734      10302.14       6895.8664      92345.408      5.014987     
      5400   18564.766      75768.718     -3245.1319      9596.3378      6351.206       92345.408      5.014987     
      5500   17020.01      -116947.87     -3524.0365      8797.8358      5273.7993      92345.408      5.014987     
      5600   16277.973      263510.47     -3427.5428      8414.2685      4986.7257      92345.408      5.014987     
      5700   14461.014      117535.7      -3572.0077      7475.062       3903.0543      92345.408      5.014987     
      5800   13570.816      47183.363     -3574.7864      7014.9086      3440.1222      92345.408      5.014987     
      5900   14483.052     -264949.91     -3693.6314      7486.4534      3792.8221      92345.408      5.014987     
      6000   13688.343     -39816.125     -3677.8262      7075.6595      3397.8334      92345.408      5.014987     
      6100   11154.447     -3464.156      -3879.777       5765.8598      1886.0827      92345.408      5.014987     
      6200   12081.458     -41804.796     -3939.6758      6245.0422      2305.3664      92345.408      5.014987     
      6300   13060.193     -103701.05     -3614.1923      6750.9614      3136.769       92345.408      5.014987     
      6400   12525.033      100853.89     -3929.3529      6474.3313      2544.9784      92345.408      5.014987     
      6500   11057.399      17344.34      -4164.5486      5715.6946      1551.146       92345.408      5.014987     
      6600   11129.735      25629.932     -3930.6627      5753.0858      1822.4232      92345.408      5.014987     
      6700   11427.252      240125.85     -3658.0034      5906.8761      2248.8727      92345.408      5.014987     
      6800   11279.027      103469.4      -3825.1919      5830.2569      2005.0649      92345.408      5.014987     
      6900   11845.821      24156.726     -3928.4587      6123.239       2194.7802      92345.408      5.014987     
      7000   10874.691     -49001.868     -3928.3761      5621.2509      1692.8749      92345.408      5.014987     
      7100   11207.569      89833.543     -3990.0952      5793.3191      1803.2239      92345.408      5.014987     
      7200   11119.451     -185933.75     -3805.0298      5747.7699      1942.74        92345.408      5.014987     
      7300   10231.212     -91082.853     -3543.49        5288.6291      1745.1391      92345.408      5.014987     
      7400   9948.8823      55784.128     -3898.3997      5142.6899      1244.2902      92345.408      5.014987     
      7500   10231.699      31143.681     -3926.3424      5288.8808      1362.5384      92345.408      5.014987     
      7600   9131.3536      39783.503     -3784.2027      4720.1         935.8973       92345.408      5.014987     
      7700   8632.7809     -8039.0792     -4053.5253      4462.3821      408.85683      92345.408      5.014987     
      7800   9020.4493      174450.15     -4146.4058      4662.7724      516.36653      92345.408      5.014987     
      7900   9911.1165      14404.13      -4070.8832      5123.1683      1052.285       92345.408      5.014987     
      8000   9177.4881      64487.911     -4220.4977      4743.9475      523.44974      92345.408      5.014987     
      8100   8777.4425     -48145.715     -4250.2872      4537.1594      286.87218      92345.408      5.014987     
      8200   8142.5884      73546.785     -4163.5595      4208.9961      45.436628      92345.408      5.014987     
      8300   8257.787       22769.843     -4185.2331      4268.5436      83.310421      92345.408      5.014987     
      8400   8856.3357     -203722.77     -4223.4733      4577.9402      354.46692      92345.408      5.014987     
      8500   8032.5668     -115533.77     -4202.8763      4152.1247     -50.751599      92345.408      5.014987     
      8600   9374.7905      62837.841     -4347.9292      4845.9353      498.00618      92345.408      5.014987     
      8700   8651.5215     -99656.392     -4340.297       4472.0694      131.77241      92345.408      5.014987     
      8800   8774.6467      59511.672     -4045.6401      4535.7142      490.07414      92345.408      5.014987     
      8900   7997.6666     -96649.861     -4353.0611      4134.0844     -218.9767       92345.408      5.014987     
      9000   8322.1449      2595.489      -4169.9381      4301.8109      131.87278      92345.408      5.014987     
      9100   6720.3124      104878.73     -4517.5066      3473.8055     -1043.7011      92345.408      5.014987     
      9200   8746.6716     -317290.52     -4466.2268      4521.2536      55.026736      92345.408      5.014987     
      9300   7492.6024     -31959.163     -4563.5559      3873.011      -690.54494      92345.408      5.014987     
      9400   7182.2341      25532.112     -4278.5684      3712.5781     -565.99026      92345.408      5.014987     
      9500   6145.5789     -113115.84     -4700.744       3176.7193     -1524.0247      92345.408      5.014987     
      9600   7268.8888     -5989.0257     -4572.0508      3757.3709     -814.67991      92345.408      5.014987     
      9700   6186.727       51823.839     -4710.1078      3197.9892     -1512.1186      92345.408      5.014987     
      9800   7147.1344     -17344.401     -4568.234       3694.4347     -873.79935      92345.408      5.014987     
      9900   7471.6772      14813.805     -4637.544       3862.1945     -775.34944      92345.408      5.014987     
     10000   7034.5403     -71009.879     -4561.2547      3636.2335     -925.0212       92345.408      5.014987     
     10100   7043.0621     -8077.4709     -4685.7839      3640.6385     -1045.1454      92345.408      5.014987     
     10200   6142.7189     -78417.189     -4718.6294      3175.241      -1543.3884      92345.408      5.014987     
     10300   6898.575      -17653.754     -4760.8701      3565.9515     -1194.9186      92345.408      5.014987     
     10400   6981.0137      113606.17     -4787.1923      3608.565      -1178.6272      92345.408      5.014987     
     10500   5794.157       114475.64     -4585.0478      2995.0654     -1589.9824      92345.408      5.014987     
     10600   6468.8277     -108627.56     -4741.955       3343.8103     -1398.1447      92345.408      5.014987     
     10700   6496.4809     -42596.142     -4806.5647      3358.1045     -1448.4602      92345.408      5.014987     
     10800   6913.9637      103120.23     -4821.077       3573.9061     -1247.1709      92345.408      5.014987     
     10900   6299.8021     -301288.79     -4948.5797      3256.439      -1692.1407      92345.408      5.014987     
     11000   5549.5997      41559.57      -4969.5764      2868.6509     -2100.9255      92345.408      5.014987     
     11100   5983.7861      67626.128     -4973.0951      3093.0868     -1880.0083      92345.408      5.014987     
     11200   5402.7305     -237105.91     -5018.2523      2792.7326     -2225.5197      92345.408      5.014987     
     11300   5413.5586     -104272.29     -5017.0808      2798.3297     -2218.751       92345.408      5.014987     
     11400   5557.8042     -71941.155     -5096.7283      2872.8919     -2223.8364      92345.408      5.014987     
     11500   5633.84        24080.784     -5061.2363      2912.1957     -2149.0406      92345.408      5.014987     
     11600   5964.9622     -64820.3       -5086.2317      3083.3565     -2002.8752      92345.408      5.014987     
     11700   5242.822      -103367.91     -5297.6052      2710.074      -2587.5312      92345.408      5.014987     
     11800   5679.7964     -99332.754     -5179.5705      2935.951      -2243.6195      92345.408      5.014987     
     11900   5818.4854      74037.192     -5286.4518      3007.641      -2278.8108      92345.408      5.014987     
     12000   5375.7432     -27513.578     -5266.366       2778.7825     -2487.5835      92345.408      5.014987     
     12100   5213.093      -162182.33     -5286.4109      2694.7068     -2591.7041      92345.408      5.014987     
     12200   5583.2532      103732.1      -5434.6892      2886.0468     -2548.6425      92345.408      5.014987     
     12300   5248.6539      51756.605     -5627.2558      2713.0886     -2914.1672      92345.408      5.014987     
     12400   5027.4386     -64667.691     -5523.0096      2598.7399     -2924.2697      92345.408      5.014987     
     12500   5012.5196      50526.679     -5591.048       2591.0281     -3000.0199      92345.408      5.014987     
     12600   5079.0521     -49656.841     -5507.5529      2625.4195     -2882.1334      92345.408      5.014987     
     12700   4802.9115     -95657.744     -5524.5476      2482.6793     -3041.8683      92345.408      5.014987     
     12800   5024.5234     -71656.409     -5578.8263      2597.233      -2981.5932      92345.408      5.014987     
     12900   4183.1424      115783.48     -5582.5485      2162.3136     -3420.2348      92345.408      5.014987     
     13000   4375.538      -12990.321     -5589.1523      2261.7651     -3327.3872      92345.408      5.014987     
     13100   4293.9484      20615.758     -5617.4455      2219.5906     -3397.855       92345.408      5.014987     
     13200   4858.8776     -4815.8206     -5785.9762      2511.6088     -3274.3674      92345.408      5.014987     
     13300   3812.1296     -34532.162     -5922.0997      1970.533      -3951.5667      92345.408      5.014987     
     13400   5053.1348     -46675.346     -5708.0767      2612.0226     -3096.0541      92345.408      5.014987     
     13500   4712.6112     -143646.87     -5718.6361      2436.0021     -3282.634       92345.408      5.014987     
     13600   4492.0541      65767.884     -5820.0473      2321.9936     -3498.0537      92345.408      5.014987     
     13700   4186.3579     -26605.72      -6133.0954      2163.9758     -3969.1196      92345.408      5.014987     
     13800   4329.8326     -148813.27     -6004.8955      2238.1395     -3766.7561      92345.408      5.014987     
     13900   3299.1535     -56421.073     -6088.4442      1705.3698     -4383.0744      92345.408      5.014987     
     14000   4344.9009     -104060.99     -6035.2006      2245.9285     -3789.2722      92345.408      5.014987     
     14100   3287.6486     -90770.772     -6196.6018      1699.4228     -4497.179       92345.408      5.014987     
     14200   3643.0846     -176050.96     -6146.181       1883.1517     -4263.0293      92345.408      5.014987     
     14300   3497.7495      46825.346     -6099.6864      1808.0263     -4291.6601      92345.408      5.014987     
     14400   3269.4564     -75097.842     -6268.3076      1690.019      -4578.2886      92345.408      5.014987     
     14500   3500.5516     -75859.449     -6262.2509      1809.4748     -4452.7761      92345.408      5.014987     
     14600   3746.8977     -39592.823     -6202.9796      1936.8138     -4266.1658      92345.408      5.014987     
     14700   3427.8658     -112414.1      -6159.1197      1771.9026     -4387.2171      92345.408      5.014987     
     14800   3295.3732     -16708.114     -6135.8344      1703.4157     -4432.4187      92345.408      5.014987     
     14900   3582.5773      27393.346     -6513.4935      1851.8748     -4661.6187      92345.408      5.014987     
     15000   2599.7664     -24164.096     -6449.7495      1343.8487     -5105.9008      92345.408      5.014987     
     15001   2597.1417     -29419.717     -6464.569       1342.4919     -5122.0771      92345.408      5.014987     
Loop time of 84.0258 on 12 procs for 10000 steps with 4000 atoms

Performance: 10.283 ns/day, 2.334 hours/ns, 119.011 timesteps/s, 476.044 katom-step/s
104.3% CPU use with 12 MPI tasks x 1 OpenMP threads

MPI task timing breakdown:
Section |  min time  |  avg time  |  max time  |%varavg| %total
---------------------------------------------------------------
Pair    | 41.012     | 42.485     | 43.721     |  12.6 | 50.56
Neigh   | 1.8549     | 2.1257     | 2.3557     |  10.8 |  2.53
Comm    | 24.862     | 26.749     | 28.567     |  22.2 | 31.83
Output  | 0.20223    | 0.21475    | 0.22601    |   1.5 |  0.26
Modify  | 6.4782     | 7.256      | 8.3363     |  19.8 |  8.64
Other   |            | 5.195      |            |       |  6.18

Nlocal:        333.333 ave         379 max         288 min
Histogram: 1 1 0 2 2 2 2 0 1 1
Nghost:        2560.17 ave        2653 max        2488 min
Histogram: 1 2 2 0 2 2 0 2 0 1
Neighs:        33586.7 ave       40643 max       27972 min
Histogram: 2 0 1 2 3 1 1 0 1 1

Total # of neighbors = 403040
Ave neighs/atom = 100.76
Neighbor list builds = 978
Dangerous builds = 0
Setting up Verlet run ...
  Unit style    : metal
  Current step  : 15001
  Time step     : 0.001
Per MPI rank memory allocation (min/avg/max) = 3.928 | 3.932 | 3.94 Mbytes
   Step          Temp          Press          PotEng         KinEng         TotEng         Volume        Density    
     15001   2597.1417     -29419.717     -6464.569       1342.4919     -5122.0771      92345.408      5.014987     
     15100   12491.412     -106916.63     -5054.0857      6456.9522      1402.8665      92345.408      5.014987     
     15200   10022.91       62655.718     -5128.3322      5180.9558      52.623607      92345.408      5.014987     
     15300   9184.5449     -26749.995     -5166.7925      4747.5953     -419.19725      92345.408      5.014987     
     15400   8039.7251      49375.802     -5125.0618      4155.8249     -969.23687      92345.408      5.014987     
     15500   7560.8576     -19943.75      -5078.9728      3908.2929     -1170.6799      92345.408      5.014987     
     15600   7652.5125      193142.24     -5004.416       3955.6703     -1048.7456      92345.408      5.014987     
     15700   6475.1458     -23348.271     -5154.6763      3347.0762     -1807.6001      92345.408      5.014987     
     15800   6702.8036     -134740.44     -5063.607       3464.755      -1598.852       92345.408      5.014987     
     15900   6846.6162     -94361.772     -4953.0238      3539.0934     -1413.9304      92345.408      5.014987     
     16000   6665.6809     -14908.514     -5181.6645      3445.5659     -1736.0986      92345.408      5.014987     
     16100   6309.8064      63075.571     -5149.3482      3261.6103     -1887.7379      92345.408      5.014987     
     16200   6390.6344     -156746.76     -5119.1262      3303.3912     -1815.7349      92345.408      5.014987     
     16300   6302.4639      52304.63      -5065.1602      3257.8149     -1807.3453      92345.408      5.014987     
     16400   4745.0232     -116416.92     -5499.2444      2452.7562     -3046.4882      92345.408      5.014987     
     16500   5985.0918     -29643.011     -5234.1311      3093.7617     -2140.3694      92345.408      5.014987     
     16600   5520.9328     -62329.358     -5393.6857      2853.8327     -2539.853       92345.408      5.014987     
     16700   4585.8551      55764.887     -5551.031       2370.4804     -3180.5506      92345.408      5.014987     
     16800   5629.2753     -56335.417     -5314.632       2909.8361     -2404.7959      92345.408      5.014987     
     16900   5144.8122     -6047.6775     -5465.71        2659.4117     -2806.2983      92345.408      5.014987     
     17000   4982.7672     -38124.272     -5636.233       2575.6488     -3060.5842      92345.408      5.014987     
     17100   5033.3999      118206        -5670.7237      2601.8214     -3068.9023      92345.408      5.014987     
     17200   4847.3139     -78676.875     -5514.7868      2505.6314     -3009.1554      92345.408      5.014987     
     17300   5129.1005      81970.726     -5733.4348      2651.2901     -3082.1447      92345.408      5.014987     
     17400   4108.6032     -145587.47     -5767.2248      2123.7835     -3643.4414      92345.408      5.014987     
     17500   4378.122       39705.339     -5932.1584      2263.1008     -3669.0576      92345.408      5.014987     
     17600   4065.0081      64204.92      -5750.7239      2101.2487     -3649.4752      92345.408      5.014987     
     17700   3770.2994     -4187.8999     -5985.009       1948.9104     -4036.0986      92345.408      5.014987     
     17800   4563.2949     -158610.12     -5877.4844      2358.8188     -3518.6657      92345.408      5.014987     
     17900   4391.3089     -22489.517     -5924.2276      2269.9173     -3654.3104      92345.408      5.014987     
     18000   3836.6914     -133119.05     -6083.6264      1983.2292     -4100.3972      92345.408      5.014987     
     18100   3598.5639     -32892.707     -6083.8005      1860.1384     -4223.6621      92345.408      5.014987     
     18200   4836.3822      38577.186     -6098.7046      2499.9807     -3598.7239      92345.408      5.014987     
     18300   4265.375       52130.552     -6254.5093      2204.8206     -4049.6886      92345.408      5.014987     
     18400   3389.1772     -31322.489     -6330.9988      1751.9041     -4579.0948      92345.408      5.014987     
     18500   4008.5119     -210159.01     -6211.8703      2072.0452     -4139.8252      92345.408      5.014987     
     18600   4747.4478      34030.302     -6236.1893      2454.0095     -3782.1798      92345.408      5.014987     
     18700   4013.4873     -3693.6335     -6481.4115      2074.617      -4406.7945      92345.408      5.014987     
     18800   3042.6494     -101370.76     -6567.3691      1572.7799     -4994.5892      92345.408      5.014987     
     18900   3537.2993      88157.677     -6554.019       1828.47       -4725.549       92345.408      5.014987     
     19000   4278.2991     -41188.622     -6415.286       2211.5013     -4203.7847      92345.408      5.014987     
     19100   3374.4632     -82798.425     -6394.567       1744.2982     -4650.2688      92345.408      5.014987     
     19200   4027.5028     -152687.9      -6416.6456      2081.8618     -4334.7838      92345.408      5.014987     
     19300   3438.1968      119868.57     -6586.5348      1777.2428     -4809.2919      92345.408      5.014987     
     19400   2919.1921      37562.31      -6515.4824      1508.9634     -5006.5189      92345.408      5.014987     
     19500   3323.1769      4366.5405     -6516.5328      1717.7877     -4798.7451      92345.408      5.014987     
     19600   3018.8499     -140659.51     -6608.6492      1560.4777     -5048.1715      92345.408      5.014987     
     19700   2958.3559     -42158.138     -6626.5651      1529.2077     -5097.3575      92345.408      5.014987     
     19800   3985.4227     -65406.984     -6491.0887      2060.1101     -4430.9786      92345.408      5.014987     
     19900   3415.7766     -24095.409     -6540.8243      1765.6536     -4775.1707      92345.408      5.014987     
     20000   2891.3526     -59637.566     -6660.6038      1494.5729     -5166.0309      92345.408      5.014987     
     20100   3194.7847      23306.113     -6755.5625      1651.4204     -5104.1421      92345.408      5.014987     
     20200   2845.2217     -63950.633     -6765.3601      1470.7273     -5294.6328      92345.408      5.014987     
     20300   3488.2417     -130325.85     -6617.9745      1803.1116     -4814.8629      92345.408      5.014987     
     20400   2865.7504     -52514.192     -6794.4431      1481.3388     -5313.1043      92345.408      5.014987     
     20500   2756.4834      44277.427     -6896.5963      1424.8575     -5471.7388      92345.408      5.014987     
     20600   3533.6672     -38715.896     -6824.6021      1826.5926     -4998.0095      92345.408      5.014987     
     20700   3389.6081     -90621.591     -6792.7078      1752.1268     -5040.581       92345.408      5.014987     
     20800   3751.6752     -3577.1472     -6729.6677      1939.2834     -4790.3843      92345.408      5.014987     
     20900   3490.5654      101757.44     -6997.7724      1804.3128     -5193.4596      92345.408      5.014987     
     21000   3081.8716     -100012.06     -6872.4228      1593.0543     -5279.3684      92345.408      5.014987     
     21100   3061.7884      18963.565     -7013.6088      1582.6731     -5430.9357      92345.408      5.014987     
     21200   2519.241      -54141.636     -7161.1645      1302.2242     -5858.9403      92345.408      5.014987     
     21300   3013.0423     -190976        -7219.2887      1557.4757     -5661.8131      92345.408      5.014987     
     21400   2656.9633      52452.219     -7168.1002      1373.4144     -5794.6858      92345.408      5.014987     
     21500   2785.7839      29844.113     -7120.1173      1440.0032     -5680.114       92345.408      5.014987     
     21600   2739.476      -67141.62      -7204.8249      1416.0661     -5788.7587      92345.408      5.014987     
     21700   2167.971      -49117.807     -7288.6759      1120.6487     -6168.0272      92345.408      5.014987     
     21800   3123.5203      15106.068     -7225.5412      1614.583      -5610.9582      92345.408      5.014987     
     21900   3177.6377     -168228.59     -7083.0544      1642.5569     -5440.4975      92345.408      5.014987     
     22000   2780.3838     -62283.666     -7107.3304      1437.2119     -5670.1185      92345.408      5.014987     
     22100   3113.8942      35614.327     -7184.0471      1609.6072     -5574.44        92345.408      5.014987     
     22200   2885.0205     -93023.28      -7300.2176      1491.2997     -5808.9179      92345.408      5.014987     
     22300   2790.3301      96618.781     -7331.3034      1442.3532     -5888.9502      92345.408      5.014987     
     22400   2718.2709     -81344.509     -7279.5425      1405.105      -5874.4375      92345.408      5.014987     
     22500   2750.619      -115605.02     -7318.4075      1421.8261     -5896.5814      92345.408      5.014987     
     22600   2310.1174     -130961.3      -7465.0183      1194.1258     -6270.8925      92345.408      5.014987     
     22700   2584.2374     -11564.028     -7442.433       1335.8216     -6106.6114      92345.408      5.014987     
     22800   2383.2881     -26634.336     -7419.9402      1231.9486     -6187.9916      92345.408      5.014987     
     22900   2995.7671     -35780.862     -7452.7023      1548.5459     -5904.1564      92345.408      5.014987     
     23000   2168.5711      52337.606     -7468.4978      1120.959      -6347.5388      92345.408      5.014987     
     23100   3012.791      -93280.453     -7461.0459      1557.3458     -5903.7001      92345.408      5.014987     
     23200   2844.7987      3013.6139     -7429.5948      1470.5087     -5959.0861      92345.408      5.014987     
     23300   2451.1762      57876.525     -7576.1531      1267.0407     -6309.1124      92345.408      5.014987     
     23400   2035.8997      43033.208     -7675.4737      1052.3796     -6623.0941      92345.408      5.014987     
     23500   2503.2447     -28560.494     -7612.6369      1293.9555     -6318.6814      92345.408      5.014987     
     23600   1865.247      -22871.905     -7652.1264      964.16727     -6687.9591      92345.408      5.014987     
     23700   2350.4448      36549.01      -7620.7939      1214.9715     -6405.8224      92345.408      5.014987     
     23800   2259.6824     -205805.91     -7611.2171      1168.0554     -6443.1617      92345.408      5.014987     
     23900   2972.1739     -8238.7527     -7538.0174      1536.3503     -6001.667       92345.408      5.014987     
     24000   2426.4765     -90976.914     -7636.0072      1254.2732     -6381.7341      92345.408      5.014987     
     24100   2951.2173     -57511.143     -7512.6032      1525.5176     -5987.0855      92345.408      5.014987     
     24200   2531.9122      40543.958     -7545.5523      1308.7741     -6236.7783      92345.408      5.014987     
     24300   2221.3665      60356.987     -7772.077       1148.2495     -6623.8275      92345.408      5.014987     
     24400   2420.484      -86683.069     -7672.0438      1251.1756     -6420.8682      92345.408      5.014987     
     24500   2120.0955     -73535.332     -7793.0529      1095.9013     -6697.1515      92345.408      5.014987     
     24600   2137.1121     -25177.02      -7773.6664      1104.6974     -6668.9689      92345.408      5.014987     
     24700   2147.9289      50042.537     -7833.1633      1110.2888     -6722.8745      92345.408      5.014987     
     24800   2706.1982     -33277.124     -7697.9195      1398.8645     -6299.0551      92345.408      5.014987     
     24900   2550.7602     -13204.426     -7726.0787      1318.5168     -6407.5619      92345.408      5.014987     
     25000   2813.9245      90605.362     -7766.7243      1454.5494     -6312.1748      92345.408      5.014987     
     25100   2795.2373      3044.159      -7839.0534      1444.8898     -6394.1636      92345.408      5.014987     
     25200   1679.2957      15947.465     -7931.1696      868.04695     -7063.1226      92345.408      5.014987     
     25300   2735.9317      74304.191     -7804.1539      1414.2341     -6389.9198      92345.408      5.014987     
     25400   2427.2966     -50139.004     -7766.4892      1254.6971     -6511.7921      92345.408      5.014987     
     25500   1995.0708     -70484.167     -7904.3191      1031.2747     -6873.0444      92345.408      5.014987     
     25600   2000.6415     -22824.932     -7879.746       1034.1542     -6845.5917      92345.408      5.014987     
     25700   2244.9275     -16367.959     -7676.767       1160.4284     -6516.3386      92345.408      5.014987     
     25800   1662.7581     -20217.586     -7953.8883      859.49846     -7094.3898      92345.408      5.014987     
     25900   2128.9058      18077.867     -7905.8323      1100.4555     -6805.3768      92345.408      5.014987     
     26000   1773.6687      85221.937     -7861.5089      916.82944     -6944.6794      92345.408      5.014987     
     26100   2408.096      -67714.114     -7943.999       1244.7721     -6699.227       92345.408      5.014987     
     26200   2071.597       377.13174     -7891.5672      1070.8319     -6820.7352      92345.408      5.014987     
     26300   2399.4581     -34350.453     -7795.1794      1240.3071     -6554.8724      92345.408      5.014987     
     26400   2410.5335      66219.398     -7831.6667      1246.0321     -6585.6346      92345.408      5.014987     
     26500   1846.7413     -19242.038     -7796.1239      954.60146     -6841.5224      92345.408      5.014987     
     26600   2452.7528      37842.746     -7936.5373      1267.8557     -6668.6816      92345.408      5.014987     
     26700   2133.1656      44485.267     -7922.8501      1102.6574     -6820.1927      92345.408      5.014987     
     26800   2466.3793     -193010.65     -7960.9294      1274.8994     -6686.03        92345.408      5.014987     
     26900   1773.9448     -9559.964      -8018.328       916.97216     -7101.3559      92345.408      5.014987     
     27000   1704.6569      79284.708     -8063.6627      881.15644     -7182.5062      92345.408      5.014987     
     27100   1841.4148     -6019.2918     -8042.6017      951.84817     -7090.7536      92345.408      5.014987     
     27200   2315.4763     -109980        -8033.8473      1196.8959     -6836.9514      92345.408      5.014987     
     27300   2323.9192     -43248.07      -8093.3171      1201.2601     -6892.057       92345.408      5.014987     
     27400   1956.0717      21178.012     -8064.4621      1011.1156     -7053.3465      92345.408      5.014987     
     27500   2178.298      -41962.771     -8142.7493      1125.9869     -7016.7624      92345.408      5.014987     
     27600   1950.9091      22917.191     -8176.6985      1008.447      -7168.2515      92345.408      5.014987     
     27700   2018.1694     -34954.923     -8100.2368      1043.2146     -7057.0222      92345.408      5.014987     
     27800   2875.2523      75850.266     -8000.6888      1486.2504     -6514.4384      92345.408      5.014987     
     27900   1846.7546     -26167.18      -8064.791       954.60834     -7110.1826      92345.408      5.014987     
     28000   1409.9398     -19170.718     -8158.5556      728.81386     -7429.7417      92345.408      5.014987     
     28100   1776.6861      74997.748     -8206.7623      918.38916     -7288.3732      92345.408      5.014987     
     28200   2225.7882     -47712.641     -8132.5247      1150.5351     -6981.9896      92345.408      5.014987     
     28300   2620.1122     -121228.88     -7975.6685      1354.3657     -6621.3029      92345.408      5.014987     
     28400   2595.0453      64692.435     -8109.3059      1341.4083     -6767.8976      92345.408      5.014987     
     28500   2183.1738     -65257.024     -8107.3432      1128.5073     -6978.8359      92345.408      5.014987     
     28600   1788.1784     -71555.354     -8168.221       924.32964     -7243.8914      92345.408      5.014987     
     28700   2572.2334     -70217.057     -8254.3616      1329.6166     -6924.745       92345.408      5.014987     
     28800   1616.2163      57637.327     -8326.5768      835.44049     -7491.1363      92345.408      5.014987     
     28900   1722.8469      44496.81      -8321.8999      890.55906     -7431.3408      92345.408      5.014987     
     29000   1755.7622      50302.714     -8380.0481      907.57335     -7472.4748      92345.408      5.014987     
     29100   1424.8921      105048.28     -8340.3017      736.54286     -7603.7589      92345.408      5.014987     
     29200   1542.974      -7578.9818     -8411.7239      797.58075     -7614.1432      92345.408      5.014987     
     29300   1139.0157      9568.5178     -8477.2112      588.77011     -7888.4411      92345.408      5.014987     
     29400   1916.397       66391.371     -8355.2928      990.60733     -7364.6855      92345.408      5.014987     
     29500   1747.5313     -54582.54      -8405.8219      903.31873     -7502.5032      92345.408      5.014987     
     29600   1693.0589     -40060.686     -8391.9524      875.16133     -7516.791       92345.408      5.014987     
     29700   1884.9555     -120520.79     -8331.5924      974.35485     -7357.2375      92345.408      5.014987     
     29800   1881.8772     -3346.3076     -8384.9262      972.76362     -7412.1626      92345.408      5.014987     
     29900   2171.4653      37052.354     -8323.1639      1122.455      -7200.7089      92345.408      5.014987     
     30000   1855.0623     -57463.683     -8303.7455      958.90268     -7344.8428      92345.408      5.014987     
     30100   1928.2656      28080.929     -8332.1293      996.7423      -7335.387       92345.408      5.014987     
     30200   1776.3389      58165.95      -8341.513       918.20968     -7423.3033      92345.408      5.014987     
     30300   1674.8637     -87132.136     -8262.7805      865.75601     -7397.0245      92345.408      5.014987     
     30400   1827.3184      11206.958     -8194.2861      944.56157     -7249.7245      92345.408      5.014987     
     30500   1778.4628      24596.219     -8278.6917      919.30755     -7359.3842      92345.408      5.014987     
     30600   1859.6336     -81053.261     -8319.3058      961.26566     -7358.0401      92345.408      5.014987     
     30700   1385.8892     -52514.575     -8371.528       716.38179     -7655.1462      92345.408      5.014987     
     30800   1879.2785     -54465.564     -8265.3359      971.42034     -7293.9156      92345.408      5.014987     
     30900   1786.8219     -60553.762     -8306.5181      923.62845     -7382.8897      92345.408      5.014987     
     31000   1655.1429     -15353.312     -8304.0494      855.56212     -7448.4873      92345.408      5.014987     
     31100   1914.1675     -48818.682     -8183.878       989.45487     -7194.4232      92345.408      5.014987     
     31200   2323.3295     -23046.368     -8191.4682      1200.9553     -6990.5129      92345.408      5.014987     
     31300   2271.5077      38080.233     -8071.4446      1174.168      -6897.2766      92345.408      5.014987     
     31400   1743.9476      21186.366     -8356.8065      901.46623     -7455.3402      92345.408      5.014987     
     31500   2054.4641     -15421.193     -8267.9614      1061.9757     -7205.9857      92345.408      5.014987     
     31600   1541.6883     -38706.722     -8373.7723      796.91612     -7576.8562      92345.408      5.014987     
     31700   2244.0661     -23340.694     -8352.7427      1159.9832     -7192.7595      92345.408      5.014987     
     31800   2552.0472      39394.14      -8255.8393      1319.1821     -6936.6573      92345.408      5.014987     
     31900   2137.2665      19073.785     -8373.1882      1104.7773     -7268.4109      92345.408      5.014987     
     32000   1793.5046     -4363.3168     -8288.0217      927.08285     -7360.9389      92345.408      5.014987     
     32100   2020.3548     -35532.65      -8256.4151      1044.3443     -7212.0708      92345.408      5.014987     
     32200   1537.0587      46996.065     -8474.3262      794.52303     -7679.8031      92345.408      5.014987     
     32300   1719.2089     -70318.844     -8385.5999      888.67856     -7496.9214      92345.408      5.014987     
     32400   1126.2355     -39270.318     -8417.0417      582.16388     -7834.8779      92345.408      5.014987     
     32500   2599.1066     -50844.639     -8342.9987      1343.5076     -6999.4911      92345.408      5.014987     
     32600   1846.1148      28548.933     -8333.8852      954.27763     -7379.6076      92345.408      5.014987     
     32700   1729.9255      55022.932     -8349.2259      894.21806     -7455.0078      92345.408      5.014987     
     32800   1594.943      -126218.91     -8433.0995      824.44409     -7608.6555      92345.408      5.014987     
     32900   1694.4742     -14531.232     -8385.9402      875.89291     -7510.0472      92345.408      5.014987     
     33000   1415.8491     -26542.544     -8453.2224      731.86845     -7721.354       92345.408      5.014987     
     33100   2355.9084     -89738.434     -8441.8285      1217.7957     -7224.0327      92345.408      5.014987     
     33200   1825.5695      47548.334     -8417.3715      943.65753     -7473.7139      92345.408      5.014987     
     33300   1976.6558     -4513.4627     -8547.0914      1021.7558     -7525.3356      92345.408      5.014987     
     33400   1859.3855      5919.4452     -8494.8066      961.13739     -7533.6692      92345.408      5.014987     
     33500   1748.1084      50417.471     -8469.7566      903.61701     -7566.1396      92345.408      5.014987     
     33600   1691.2009     -17289.653     -8480.1717      874.20087     -7605.9708      92345.408      5.014987     
     33700   2127.8725      67150.186     -8357.6584      1099.9214     -7257.737       92345.408      5.014987     
     33800   1852.8083      39944.813     -8399.15        957.73759     -7441.4124      92345.408      5.014987     
     33900   1305.7559     -68139.244     -8484.0187      674.96        -7809.0587      92345.408      5.014987     
     34000   1219.3635      16700.082     -8615.8569      630.3028      -7985.5541      92345.408      5.014987     
     34100   1702.4488      15266.688     -8478.1129      880.01508     -7598.0978      92345.408      5.014987     
     34200   1874.403       35336.636     -8491.2935      968.90015     -7522.3934      92345.408      5.014987     
     34300   1433.5316     -120362        -8606.4038      741.00872     -7865.3951      92345.408      5.014987     
     34400   1885.1459     -33755.364     -8501.6463      974.45326     -7527.193       92345.408      5.014987     
     34500   1930.7524     -40839.662     -8328.3056      998.02776     -7330.2778      92345.408      5.014987     
     34600   1589.8834      38743.88      -8541.9641      821.82872     -7720.1353      92345.408      5.014987     
     34700   1637.1736      52368.132     -8608.0262      846.27356     -7761.7526      92345.408      5.014987     
     34800   1754.2196      3987.4052     -8614.8302      906.77599     -7708.0542      92345.408      5.014987     
     34900   1045.7882     -39932.674     -8669.2673      540.57977     -8128.6875      92345.408      5.014987     
     35000   1420.3159      8946.5035     -8545.137       734.17736     -7810.9596      92345.408      5.014987     
     35001   1389.4718     -35551.094     -8542.3325      718.23371     -7824.0988      92345.408      5.014987     
Loop time of 83.2387 on 12 procs for 20000 steps with 4000 atoms

Performance: 20.760 ns/day, 1.156 hours/ns, 240.273 timesteps/s, 961.091 katom-step/s
103.6% CPU use with 12 MPI tasks x 1 OpenMP threads

MPI task timing breakdown:
Section |  min time  |  avg time  |  max time  |%varavg| %total
---------------------------------------------------------------
Pair    | 48.546     | 53.441     | 58.013     |  38.6 | 64.20
Neigh   | 2.2404     | 2.8538     | 3.4246     |  19.8 |  3.43
Comm    | 16.02      | 21.198     | 26.723     |  68.7 | 25.47
Output  | 0.052975   | 0.056524   | 0.072306   |   2.1 |  0.07
Modify  | 3.2062     | 3.3704     | 3.6309     |   7.1 |  4.05
Other   |            | 2.319      |            |       |  2.79

Nlocal:        333.333 ave         386 max         247 min
Histogram: 1 0 0 1 3 1 1 1 2 2
Nghost:         2569.5 ave        2640 max        2514 min
Histogram: 2 3 0 0 1 2 1 1 1 1
Neighs:        34663.5 ave       42791 max       21983 min
Histogram: 1 0 0 1 3 2 0 0 3 2

Total # of neighbors = 415962
Ave neighs/atom = 103.9905
Neighbor list builds = 1464
Dangerous builds = 0
Setting up Verlet run ...
  Unit style    : metal
  Current step  : 35001
  Time step     : 0.001
Per MPI rank memory allocation (min/avg/max) = 3.944 | 3.948 | 3.956 Mbytes
   Step          Temp          Press          PotEng         KinEng         TotEng         Volume        Density    
     35001   1389.4718     -35551.094     -8542.3325      718.23371     -7824.0988      92345.408      5.014987     
     35100   1941.1877      52962.572     -8507.3234      1003.4219     -7503.9015      92345.408      5.014987     
     35200   1309.8953      25763.057     -8567.4595      677.09973     -7890.3597      92345.408      5.014987     
     35300   1383.4343     -67209.692     -8569.1369      715.11284     -7854.0241      92345.408      5.014987     
     35400   1822.9219     -123829.35     -8558.0203      942.28895     -7615.7314      92345.408      5.014987     
     35500   1690.9098     -251843.2      -8506.5844      874.0504      -7632.534       92345.408      5.014987     
     35600   1864.6013      14658.933     -8294.3603      963.83352     -7330.5268      92345.408      5.014987     
     35700   1932.8462      18627.938     -8463.7128      999.11008     -7464.6028      92345.408      5.014987     
     35800   1564.8265      79903.588     -8505.468       808.87651     -7696.5915      92345.408      5.014987     
     35900   2036.3735      21511.195     -8449.8515      1052.6245     -7397.227       92345.408      5.014987     
     36000   2006.8451     -82117.904     -8384.08        1037.361      -7346.7191      92345.408      5.014987     
     36100   1360.8673      32511.849     -8531.9328      703.44772     -7828.4851      92345.408      5.014987     
     36200   1893.5628     -48337.044     -8600.6666      978.80407     -7621.8625      92345.408      5.014987     
     36300   1638.4264      41285.733     -8600.1775      846.92114     -7753.2564      92345.408      5.014987     
     36400   1827.9856      2446.2022     -8602.8682      944.90644     -7657.9618      92345.408      5.014987     
     36500   1828.6308     -116427.25     -8666.7297      945.23998     -7721.4897      92345.408      5.014987     
     36600   1343.9178     -52285.636     -8672.0524      694.68633     -7977.3661      92345.408      5.014987     
     36700   1411.4364     -4735.9038     -8690.8742      729.58743     -7961.2867      92345.408      5.014987     
     36800   1475.2816     -95698.105     -8685.5258      762.58974     -7922.9361      92345.408      5.014987     
     36900   1228.6772      4294.3337     -8723.7722      635.11714     -8088.6551      92345.408      5.014987     
     37000   1690.8514     -834.36741     -8596.4874      874.02023     -7722.4672      92345.408      5.014987     
     37100   1569.5166      51881.452     -8475.6559      811.30091     -7664.355       92345.408      5.014987     
     37200   1443.8814     -64867.004     -8546.0196      746.35866     -7799.6609      92345.408      5.014987     
     37300   1281.0364      52710.529     -8691.3486      662.18222     -8029.1664      92345.408      5.014987     
     37400   1505.6678      2444.3958     -8545.0507      778.29671     -7766.754       92345.408      5.014987     
     37500   1486.765       25515.088     -8661.7211      768.52565     -7893.1955      92345.408      5.014987     
     37600   1677.0112     -32259.803     -8522.712       866.86609     -7655.8459      92345.408      5.014987     
WARNING: A per-atom density exceeded rhomax of EAM potential table - a linear extrapolation to the energy was made (src/MANYBODY/pair_eam.cpp:335)
     37700   1685.3845      4832.5756     -8618.1372      871.19431     -7746.9429      92345.408      5.014987     
     37800   1782.1589     -6884.1379     -8599.0855      921.2181      -7677.8674      92345.408      5.014987     
     37900   1358.3974     -49188.539     -8516.1774      702.171       -7814.0064      92345.408      5.014987     
     38000   1739.4159     -14588.588     -8437.3596      899.12377     -7538.2358      92345.408      5.014987     
     38100   1623.4314     -66513.631     -8495.5436      839.17006     -7656.3736      92345.408      5.014987     
     38200   1631.9456      44579.376     -8574.8181      843.57113     -7731.247       92345.408      5.014987     
     38300   1595.3635      28792.186     -8533.7682      824.66147     -7709.1067      92345.408      5.014987     
     38400   1635.1328      102609.82     -8515.1756      845.21865     -7669.9569      92345.408      5.014987     
     38500   1377.0699      3685.0161     -8620.3002      711.82299     -7908.4772      92345.408      5.014987     
     38600   1704.5708     -49518.547     -8652.3086      881.11195     -7771.1967      92345.408      5.014987     
     38700   1525.4029      9652.1139     -8582.2899      788.49803     -7793.7919      92345.408      5.014987     
     38800   1612.835      -119582.61     -8562.2829      833.69269     -7728.5902      92345.408      5.014987     
     38900   1063.1656     -133648.54     -8679.7642      549.56233     -8130.2018      92345.408      5.014987     
     39000   1173.1275      7966.0536     -8608.6135      606.40286     -8002.2106      92345.408      5.014987     
     39100   1398.4119     -30569.801     -8559.8643      722.85497     -7837.0094      92345.408      5.014987     
     39200   1431.3798     -197089.9      -8595.7335      739.89643     -7855.837       92345.408      5.014987     
     39300   1185.432      -1688.7174     -8642.6399      612.76324     -8029.8766      92345.408      5.014987     
     39400   1456.6389     -1016.8958     -8667.5663      752.95312     -7914.6132      92345.408      5.014987     
     39500   1746.7707      30330.205     -8614.7953      902.92555     -7711.8697      92345.408      5.014987     
     39600   1544.1043      3350.6832     -8668.335       798.16499     -7870.17        92345.408      5.014987     
     39700   2006.103       28485.224     -8559.6838      1036.9773     -7522.7065      92345.408      5.014987     
     39800   1568.1078     -12544.759     -8583.3927      810.57269     -7772.82        92345.408      5.014987     
     39900   1402.2127     -5243.337      -8574.812       724.81961     -7849.9924      92345.408      5.014987     
     40000   1545.279       41554.488     -8660.7065      798.77222     -7861.9343      92345.408      5.014987     
     40100   1335.4536      41420.987     -8672.119       690.31107     -7981.8079      92345.408      5.014987     
     40200   1424.8786      57334.504     -8724.8267      736.53586     -7988.2909      92345.408      5.014987     
     40300   1341.3815      22538.226     -8723.9895      693.37527     -8030.6142      92345.408      5.014987     
     40400   1875.8252      27675.018     -8659.3527      969.63526     -7689.7174      92345.408      5.014987     
     40500   1248.7254     -22452.87      -8694.0417      645.48028     -8048.5614      92345.408      5.014987     
     40600   1587.604      -60650.666     -8692.454       820.65047     -7871.8036      92345.408      5.014987     
     40700   1874.4056     -17935.553     -8553.1621      968.90149     -7584.2606      92345.408      5.014987     
     40800   2073.0418     -16531.823     -8551.5369      1071.5788     -7479.9581      92345.408      5.014987     
     40900   2063.6718     -44824.587     -8620.4295      1066.7353     -7553.6941      92345.408      5.014987     
     41000   1159.8912     -88696.325     -8702.6469      599.56091     -8103.0859      92345.408      5.014987     
     41100   1460.1788     -14582.169     -8749.5392      754.78294     -7994.7563      92345.408      5.014987     
     41200   1845.6215     -24325.23      -8632.2672      954.02266     -7678.2446      92345.408      5.014987     
     41300   1161.8505      74216.276     -8744.8362      600.57369     -8144.2625      92345.408      5.014987     
     41400   947.25796      2167.8089     -8769.0584      489.64836     -8279.41        92345.408      5.014987     
     41500   1402.4146     -81207.32      -8738.5794      724.92396     -8013.6555      92345.408      5.014987     
     41600   1744.2727     -71594.643     -8701.2047      901.63431     -7799.5703      92345.408      5.014987     
     41700   1372.4912     -49640.28      -8745.9533      709.45624     -8036.4971      92345.408      5.014987     
     41800   1367.1723     -64614.277     -8795.6183      706.70686     -8088.9114      92345.408      5.014987     
     41900   1237.8416     -21933.031     -8785.7342      639.85435     -8145.8799      92345.408      5.014987     
     42000   1390.1447     -51929.869     -8800.046       718.58154     -8081.4645      92345.408      5.014987     
     42100   1337.7604      28577.53      -8750.0391      691.50352     -8058.5356      92345.408      5.014987     
     42200   2111.4345     -53851.626     -8747.3251      1091.4244     -7655.9008      92345.408      5.014987     
     42300   1816.4889      15569.171     -8632.204       938.96369     -7693.2403      92345.408      5.014987     
     42400   1249.0642     -23987.969     -8736.1523      645.65543     -8090.4969      92345.408      5.014987     
     42500   1490.5777      55198.612     -8621.7654      770.49647     -7851.2689      92345.408      5.014987     
     42600   1296.3235      23397.69      -8748.2314      670.08429     -8078.1471      92345.408      5.014987     
     42700   1348.3124      17255.753     -8751.2157      696.95796     -8054.2577      92345.408      5.014987     
     42800   1056.5832      8932.3378     -8708.9803      546.15981     -8162.8205      92345.408      5.014987     
     42900   1425.6253     -70464.187     -8657.7565      736.92186     -7920.8347      92345.408      5.014987     
     43000   1993.0145     -52150.338     -8507.0684      1030.2118     -7476.8566      92345.408      5.014987     
     43100   1839.9024     -111002.68     -8611.537       951.06636     -7660.4707      92345.408      5.014987     
     43200   1817.5796     -24780.993     -8631.1832      939.52748     -7691.6557      92345.408      5.014987     
     43300   1076.301      -54695.557     -8713.9799      556.35216     -8157.6278      92345.408      5.014987     
     43400   1546.1732     -46638.879     -8606.6785      799.23445     -7807.444       92345.408      5.014987     
     43500   1895.7954      20288.601     -8593.055       979.95809     -7613.097       92345.408      5.014987     
     43600   1397.2688      43644.054     -8635.2397      722.26406     -7912.9757      92345.408      5.014987     
     43700   1950          -19291.868     -8626.1061      1007.9771     -7618.1291      92345.408      5.014987     
     43800   1980.7949      17081.225     -8623.3848      1023.8953     -7599.4894      92345.408      5.014987     
     43900   1278.9724     -13000.685     -8841.724       661.11533     -8180.6087      92345.408      5.014987     
     44000   1385.4244     -5791.2169     -8812.406       716.14158     -8096.2644      92345.408      5.014987     
     44100   1069.8823     -161977.56     -8836.613       553.03427     -8283.5787      92345.408      5.014987     
     44200   1416.3995     -48131.412     -8814.3325      732.15294     -8082.1796      92345.408      5.014987     
     44300   1774.4957      20018.791     -8640.6228      917.25692     -7723.3659      92345.408      5.014987     
     44400   1385.8187      1241.0976     -8715.4575      716.34535     -7999.1122      92345.408      5.014987     
     44500   1898.6213      72517.835     -8650.8397      981.41884     -7669.4209      92345.408      5.014987     
     44600   1636.451      -14824.289     -8706.7958      845.90006     -7860.8957      92345.408      5.014987     
     44700   1199.8724     -55431.833     -8720.0222      620.22761     -8099.7945      92345.408      5.014987     
     44800   1639.8959     -37978.047     -8569.2187      847.68077     -7721.5379      92345.408      5.014987     
     44900   1493.7085      6040.9315     -8673.452       772.11485     -7901.3372      92345.408      5.014987     
     45000   2164.0955     -36331.633     -8706.4121      1118.6455     -7587.7666      92345.408      5.014987     
     45100   1438.539       19238.52      -8690.6212      743.5971      -7947.0241      92345.408      5.014987     
     45200   1302.6511      44618.541     -8611.7636      673.35512     -7938.4084      92345.408      5.014987     
     45300   2443.214      -18112.765     -8534.942       1262.925      -7272.0171      92345.408      5.014987     
     45400   1292.9781      14333.377     -8747.9162      668.35502     -8079.5611      92345.408      5.014987     
     45500   1578.4324      44511.103     -8786.9563      815.90956     -7971.0468      92345.408      5.014987     
     45600   1371.3678     -62171.76      -8742.453       708.87553     -8033.5775      92345.408      5.014987     
     45700   1612.6761      42756.473     -8775.0792      833.61053     -7941.4687      92345.408      5.014987     
     45800   1387.8271      27381.229     -8724.4171      717.38355     -8007.0336      92345.408      5.014987     
     45900   1329.9876      32827.589     -8782.5395      687.48564     -8095.0538      92345.408      5.014987     
     46000   1375.5254     -17631.882     -8789.6626      711.02466     -8078.6379      92345.408      5.014987     
     46100   1446.6277      80938.911     -8781.6406      747.77823     -8033.8624      92345.408      5.014987     
     46200   1185.4995     -31070.411     -8726.9548      612.7981      -8114.1567      92345.408      5.014987     
     46300   1260.2236      8444.1308     -8851.5552      651.42382     -8200.1314      92345.408      5.014987     
     46400   1431.6173     -888.45619     -8838.5365      740.01918     -8098.5173      92345.408      5.014987     
     46500   1606.8808      33243.061     -8816.3658      830.61488     -7985.7509      92345.408      5.014987     
     46600   1028.0986     -20955.923     -8862.6272      531.43579     -8331.1914      92345.408      5.014987     
     46700   1033.3647     -11053.317     -8815.2699      534.15792     -8281.112       92345.408      5.014987     
     46800   1123.3656      67108.533     -8789.6148      580.68041     -8208.9344      92345.408      5.014987     
     46900   1143.3267      39360.89      -8801.2705      590.9985      -8210.272       92345.408      5.014987     
     47000   1495.6408      77940.151     -8879.6206      773.11368     -8106.5069      92345.408      5.014987     
     47100   1467.71       -130981.95     -8798.4224      758.67594     -8039.7465      92345.408      5.014987     
     47200   1800.5225      14215.479     -8826.5102      930.71048     -7895.7997      92345.408      5.014987     
     47300   1411.6889      88169.642     -8618.1868      729.71797     -7888.4688      92345.408      5.014987     
     47400   1689.4187     -34562.547     -8693.3696      873.27966     -7820.0899      92345.408      5.014987     
     47500   2039.4465      5494.8241     -8740.7596      1054.213      -7686.5466      92345.408      5.014987     
     47600   1672.2178     -96556.619     -8650.765       864.38833     -7786.3767      92345.408      5.014987     
     47700   1336.0304      25601.474     -8781.493       690.60922     -8090.8838      92345.408      5.014987     
     47800   1327.024      -141555.12     -8825.698       685.95375     -8139.7442      92345.408      5.014987     
     47900   1478.3932      2364.393      -8693.7208      764.19817     -7929.5226      92345.408      5.014987     
     48000   1353.5437      20527.794     -8746.9268      699.66207     -8047.2648      92345.408      5.014987     
     48100   1957.1413      92038.118     -8601.3415      1011.6685     -7589.673       92345.408      5.014987     
     48200   1539.5146     -26448.335     -8694.4777      795.79252     -7898.6852      92345.408      5.014987     
     48300   2181.4418      16990.455     -8716.062       1127.612      -7588.4501      92345.408      5.014987     
     48400   1866.7579      93410.594     -8810.9174      964.94832     -7845.9691      92345.408      5.014987     
     48500   2154.4059      42057.302     -8694.3448      1113.6368     -7580.7081      92345.408      5.014987     
     48600   1200.1069     -75279.718     -8829.9376      620.34882     -8209.5888      92345.408      5.014987     
     48700   1226.3071     -12983.439     -8870.7878      633.89205     -8236.8957      92345.408      5.014987     
     48800   1226.7115      24324.532     -8785.1476      634.10105     -8151.0465      92345.408      5.014987     
     48900   1053.5476     -4648.0162     -8924.3754      544.59067     -8379.7847      92345.408      5.014987     
     49000   1310.3436     -8087.1688     -8856.1831      677.33146     -8178.8516      92345.408      5.014987     
     49100   1161.3127     -12288.492     -8799.4004      600.29568     -8199.1047      92345.408      5.014987     
     49200   1475.3212     -39328.12      -8817.2411      762.61023     -8054.6308      92345.408      5.014987     
     49300   1308.7357      27457.801     -8804.8543      676.50027     -8128.3541      92345.408      5.014987     
     49400   1334.219       32043.955     -8789.4328      689.67293     -8099.7599      92345.408      5.014987     
     49500   1593.3209     -99372.086     -8723.6455      823.60558     -7900.0399      92345.408      5.014987     
     49600   1463.8258     -29569.598     -8803.3332      756.66814     -8046.6651      92345.408      5.014987     
     49700   1380.3587      24641.546     -8800.653       713.52303     -8087.13        92345.408      5.014987     
     49800   1601.4422     -7267.249      -8688.6953      827.8036      -7860.8917      92345.408      5.014987     
     49900   1324.4191     -36839.861     -8800.0427      684.60721     -8115.4355      92345.408      5.014987     
     50000   1276.4926     -48019.827     -8810.3167      659.83346     -8150.4832      92345.408      5.014987     
     50100   1643.6862     -99463.717     -8827.8941      849.64001     -7978.2541      92345.408      5.014987     
     50200   1129.1405     -50211.236     -8793.24        583.66553     -8209.5745      92345.408      5.014987     
     50300   1544.7985      22482.349     -8718.1013      798.52382     -7919.5775      92345.408      5.014987     
     50400   1111.5125      35243.177     -8750.7231      574.55339     -8176.1698      92345.408      5.014987     
     50500   1011.1399     -8840.0073     -8745.7341      522.66964     -8223.0645      92345.408      5.014987     
     50600   1418.5015     -129391.61     -8633.3171      733.2395      -7900.0776      92345.408      5.014987     
     50700   1193.9076      38814.02      -8718.3805      617.14435     -8101.2362      92345.408      5.014987     
     50800   1232.4531      24919.858     -8775.771       637.06897     -8138.7021      92345.408      5.014987     
     50900   1222.3618     -84004.351     -8759.5534      631.85266     -8127.7007      92345.408      5.014987     
     51000   1533.5645      14986.434     -8760.2794      792.71686     -7967.5625      92345.408      5.014987     
     51100   1722.3486     -8544.8867     -8802.5075      890.30148     -7912.206       92345.408      5.014987     
     51200   1208.5961      25719.755     -8852.8647      624.73701     -8228.1277      92345.408      5.014987     
     51300   1558.6875     -60443.792     -8849.1829      805.70323     -8043.4797      92345.408      5.014987     
     51400   1393.521      -20647.663     -8840.4293      720.32677     -8120.1025      92345.408      5.014987     
     51500   1388.383      -102105.65     -8799.6243      717.67091     -8081.9534      92345.408      5.014987     
     51600   836.39543     -69251.576     -8890.3647      432.34227     -8458.0224      92345.408      5.014987     
     51700   1103.3977     -88744.09      -8870.312       570.35878     -8299.9532      92345.408      5.014987     
     51800   1107.1245     -61224.554     -8907.8988      572.28518     -8335.6136      92345.408      5.014987     
     51900   1003.8998     -90167.893     -8943.4125      518.92717     -8424.4853      92345.408      5.014987     
     52000   1266.9669      34908.349     -8851.3941      654.90953     -8196.4846      92345.408      5.014987     
     52100   1073.7339     -63311.533     -8843.7331      555.02519     -8288.7079      92345.408      5.014987     
     52200   1368.8529     -7371.3493     -8739.7885      707.57554     -8032.2129      92345.408      5.014987     
     52300   987.01709     -90223.478     -8850.93        510.20031     -8340.7297      92345.408      5.014987     
     52400   1040.0238     -15442.064     -8848.4738      537.60008     -8310.8737      92345.408      5.014987     
     52500   2032.7729     -7820.878      -8825.475       1050.7633     -7774.7117      92345.408      5.014987     
     52600   1650.4235      10339.034     -8827.1938      853.12261     -7974.0712      92345.408      5.014987     
     52700   1474.2411      57422.167     -8765.5373      762.05189     -8003.4854      92345.408      5.014987     
     52800   1357.8445      94712.784     -8814.9217      701.8852      -8113.0365      92345.408      5.014987     
     52900   1206.2693      86464.691     -8860.8213      623.53427     -8237.287       92345.408      5.014987     
     53000   1919.684      -35948.517     -8768.9377      992.30637     -7776.6313      92345.408      5.014987     
     53100   1545.9127     -62355.8       -8807.2586      799.09977     -8008.1588      92345.408      5.014987     
     53200   882.90084     -66893.749     -8796.1801      456.38144     -8339.7986      92345.408      5.014987     
     53300   1357.1418     -86583.138     -8765.9365      701.52196     -8064.4145      92345.408      5.014987     
     53400   1405.8057     -29334.937     -8699.7196      726.67687     -7973.0428      92345.408      5.014987     
     53500   1372.3089     -34912.228     -8628.3273      709.36198     -7918.9653      92345.408      5.014987     
     53600   1541.1397     -94753.654     -8804.8494      796.63258     -8008.2168      92345.408      5.014987     
     53700   1277.8006      15938.561     -8717.9656      660.50961     -8057.456       92345.408      5.014987     
     53800   1149.3539     -30739.568     -8810.7143      594.11406     -8216.6003      92345.408      5.014987     
     53900   1552.3575     -5929.4247     -8814.771       802.43118     -8012.3398      92345.408      5.014987     
     54000   1275.1341      25968.839     -8764.9642      659.13124     -8105.8329      92345.408      5.014987     
     54100   1331.0079     -47659.357     -8784.6622      688.01307     -8096.6491      92345.408      5.014987     
     54200   1356.7325      19407.296     -8772.2057      701.3104      -8070.8953      92345.408      5.014987     
     54300   1063.5927      21302.155     -8861.7344      549.78312     -8311.9513      92345.408      5.014987     
     54400   1101.4346     -10204.836     -8884.8272      569.34402     -8315.4832      92345.408      5.014987     
     54500   1599.2604     -44379.784     -8824.8309      826.67579     -7998.1551      92345.408      5.014987     
     54600   1232.3884     -6208.4247     -8852.1777      637.03553     -8215.1422      92345.408      5.014987     
     54700   1268.566       13073.521     -8848.4334      655.73614     -8192.6973      92345.408      5.014987     
     54800   1416.7431      41399.306     -8794.5789      732.33055     -8062.2484      92345.408      5.014987     
     54900   1839.3037     -78816.678     -8747.8966      950.7569      -7797.1397      92345.408      5.014987     
     55000   992.29227     -171004.52     -8882.0304      512.92711     -8369.1033      92345.408      5.014987     
     55100   1108.6511      4055.9841     -8903.3953      573.07429     -8330.3211      92345.408      5.014987     
     55200   1234.2208     -81355.361     -8857.9289      637.98268     -8219.9462      92345.408      5.014987     
     55300   2034.0408      7546.048      -8700.6037      1051.4187     -7649.185       92345.408      5.014987     
     55400   1405.2862      42298.447     -8867.2069      726.40836     -8140.7985      92345.408      5.014987     
     55500   1690.4608     -16291.042     -8811.9315      873.81831     -7938.1132      92345.408      5.014987     
     55600   895.25092     -62344.874     -8916.8921      462.76534     -8454.1267      92345.408      5.014987     
     55700   1192.4114      12497.915     -8896.7529      616.37093     -8280.382       92345.408      5.014987     
     55800   1690.4171      127330.23     -8816.9438      873.79573     -7943.1481      92345.408      5.014987     
     55900   1357.3936      7200.4799     -8764.5769      701.6521      -8062.9248      92345.408      5.014987     
     56000   2059.0401     -11396.949     -8879.9031      1064.3412     -7815.5619      92345.408      5.014987     
     56100   1903.2686      38909.835     -8759.188       983.8211      -7775.3669      92345.408      5.014987     
     56200   1395.8155      53038.777     -8902.5833      721.51284     -8181.0704      92345.408      5.014987     
     56300   1448.9275      27708.713     -8860.1892      748.96701     -8111.2222      92345.408      5.014987     
     56400   1020.1487     -24460.917     -8895.2166      527.32643     -8367.8902      92345.408      5.014987     
     56500   975.20366      45902.684     -8921.717       504.09381     -8417.6232      92345.408      5.014987     
     56600   1608.7916     -2700.4863     -8918.7909      831.60259     -8087.1883      92345.408      5.014987     
     56700   1024.1086     -25999.795     -8914.0617      529.37332     -8384.6883      92345.408      5.014987     
     56800   849.05943     -2537.2115     -8944.7411      438.88843     -8505.8527      92345.408      5.014987     
     56900   1103.3483     -112358.64     -8932.1896      570.33322     -8361.8564      92345.408      5.014987     
     57000   1342.3006     -108956.81     -8747.1604      693.85038     -8053.31        92345.408      5.014987     
     57100   1240.7398     -19008.953     -8932.9542      641.35244     -8291.6018      92345.408      5.014987     
     57200   1427.1175     -78936.217     -8831.0936      737.6932      -8093.4004      92345.408      5.014987     
     57300   1728.166       36007.464     -8859.9449      893.30857     -7966.6364      92345.408      5.014987     
     57400   1364.1102     -117310.87     -8815.9691      705.12399     -8110.8451      92345.408      5.014987     
     57500   1656.5973     -97087.875     -8787.6697      856.31389     -7931.3558      92345.408      5.014987     
     57600   1642.6661     -43785.842     -8781.9756      849.11272     -7932.8629      92345.408      5.014987     
     57700   1432.8845     -23400.343     -8834.8748      740.67421     -8094.2006      92345.408      5.014987     
     57800   1305.0259      69876.068     -8937.8066      674.58264     -8263.224       92345.408      5.014987     
     57900   1725.3017     -14053.772     -8895.5608      891.828       -8003.7328      92345.408      5.014987     
     58000   1305.8741      21189.345     -8843.2658      675.02111     -8168.2447      92345.408      5.014987     
     58100   1390.0066      32714.181     -8926.8078      718.51014     -8208.2977      92345.408      5.014987     
     58200   1212.53       -89271.414     -8861.0092      626.77047     -8234.2387      92345.408      5.014987     
     58300   1380.6959      10043.525     -8878.0755      713.69733     -8164.3781      92345.408      5.014987     
     58400   1131.6714     -17464.415     -8909.3734      584.97375     -8324.3996      92345.408      5.014987     
     58500   1507.0615      8785.5189     -8863.1198      779.01715     -8084.1027      92345.408      5.014987     
     58600   999.92611     -23352.374     -8921.9094      516.87313     -8405.0363      92345.408      5.014987     
     58700   1572.5666     -61495.746     -8889.2779      812.87747     -8076.4004      92345.408      5.014987     
     58800   1647.4857     -105859.82     -8822.343       851.604       -7970.739       92345.408      5.014987     
     58900   1157.0878      33541.603     -8863.3555      598.11176     -8265.2437      92345.408      5.014987     
     59000   1502.9448      30950.596     -8841.3621      776.88917     -8064.4729      92345.408      5.014987     
     59100   1274.064      -7811.2362     -8932.4982      658.57809     -8273.9201      92345.408      5.014987     
     59200   1280.133      -14873.641     -8924.7854      661.71525     -8263.0702      92345.408      5.014987     
     59300   1248.2256     -25329.878     -8911.0083      645.22195     -8265.7864      92345.408      5.014987     
     59400   1015.5719     -138115.86     -8934.7664      524.96062     -8409.8058      92345.408      5.014987     
     59500   1384.6832      38701.891     -8932.5018      715.75843     -8216.7433      92345.408      5.014987     
     59600   910.18496     -3607.8977     -8945.6637      470.48491     -8475.1788      92345.408      5.014987     
     59700   1150.8329     -27420.021     -8993.5419      594.87854     -8398.6634      92345.408      5.014987     
     59800   875.42259     -36342.151     -8972.1062      452.51584     -8519.5904      92345.408      5.014987     
     59900   1622.582       13395.502     -8868.9082      838.73102     -8030.1772      92345.408      5.014987     
     60000   1651.9875      66667.781     -8822.5906      853.93104     -7968.6596      92345.408      5.014987     
     60100   1908.2296      4213.1089     -8805.0845      986.38549     -7818.699       92345.408      5.014987     
     60200   1397.2351     -14114.453     -8910.6818      722.24665     -8188.4351      92345.408      5.014987     
     60300   1593.3943     -10851.001     -8867.7668      823.64357     -8044.1232      92345.408      5.014987     
     60400   2316.655       46033.39      -8884.0517      1197.5052     -7686.5465      92345.408      5.014987     
     60500   915.51368     -80080.063     -8944.6467      473.23939     -8471.4073      92345.408      5.014987     
     60600   1146.076      -89893.103     -8890.7878      592.41963     -8298.3682      92345.408      5.014987     
     60700   966.13629      33438.35      -8959.812       499.40679     -8460.4052      92345.408      5.014987     
     60800   1586.5885      44833.919     -8956.9105      820.12557     -8136.7849      92345.408      5.014987     
[...]
     69300   1213.0001      19543.239     -9071.1261      627.01347     -8444.1127      92345.408      5.014987     
     69400   1226.9895     -36664.906     -9180.4923      634.24474     -8546.2476      92345.408      5.014987     
     69500   1448.84       -85119.386     -8972.2091      748.92177     -8223.2873      92345.408      5.014987     
     69600   1243.0761     -39437.768     -9111.1414      642.56013     -8468.5812      92345.408      5.014987     
     69700   980.20636      5056.8918     -9090.9992      506.67976     -8584.3194      92345.408      5.014987     
     69800   1573.2362      61189.063     -9096.7921      813.2236      -8283.5685      92345.408      5.014987     
     69900   1247.9658     -167863.53     -9049.6239      645.08763     -8404.5363      92345.408      5.014987     
     70000   1099.4075      37344.1       -9113.8047      568.29618     -8545.5085      92345.408      5.014987     
     70100   1413.4185      25974.402     -9090.886       730.612       -8360.274       92345.408      5.014987     
     70200   1167.0731     -35862.892     -9078.3192      603.27327     -8475.0459      92345.408      5.014987     
     70300   1213.8219      45631.121     -9073.2982      627.43829     -8445.8599      92345.408      5.014987     
     70400   1427.4367     -98912.539     -8983.0956      737.85819     -8245.2374      92345.408      5.014987     
     70500   1272.9287     -7667.1306     -9061.5855      657.99127     -8403.5942      92345.408      5.014987     
     70600   1258.7991      42933.292     -9033.2418      650.68749     -8382.5543      92345.408      5.014987     
     70700   1169.2443      93811.585     -9036.0577      604.39559     -8431.6621      92345.408      5.014987     
     70800   1646.1304     -48218.657     -9030.4234      850.90344     -8179.5199      92345.408      5.014987     
     70900   1405.219       64211.663     -8996.0446      726.37362     -8269.671       92345.408      5.014987     
     71000   1147.9185     -94732.805     -9097.1446      593.37208     -8503.7726      92345.408      5.014987     
     71100   1061.785      -16355.555     -9138.4233      548.8487      -8589.5746      92345.408      5.014987     
     71200   823.70409     -20936.313     -9158.1159      425.78197     -8732.3339      92345.408      5.014987     
     71300   1070.2943      80694.348     -9104.214       553.24724     -8550.9668      92345.408      5.014987     
     71400   1283.3882      1540.7996     -9089.0505      663.39788     -8425.6526      92345.408      5.014987     
     71500   1234.6241      37443.631     -9149.8529      638.19116     -8511.6617      92345.408      5.014987     
     71600   1361.9086     -118550.28     -9168.6816      703.98597     -8464.6957      92345.408      5.014987     
     71700   1837.8329     -148899.01     -9071.4932      949.99664     -8121.4966      92345.408      5.014987     
     71800   974.27878     -81695.21      -9246.8481      503.61573     -8743.2323      92345.408      5.014987     
     71900   1157.3223     -22547.246     -9229.5615      598.23302     -8631.3285      92345.408      5.014987     
     72000   810.62528      30565.316     -9279.707       419.02138     -8860.6856      92345.408      5.014987     
     72100   1902.9251     -16468.005     -9081.4945      983.6435      -8097.851       92345.408      5.014987     
     72200   1355.4652      19465.119     -9200.6311      700.65531     -8499.9758      92345.408      5.014987     
     72300   1428.7328     -24062.27      -9212.4667      738.52817     -8473.9385      92345.408      5.014987     
     72400   1151.5139     -94602.879     -9160.6643      595.23056     -8565.4337      92345.408      5.014987     
     72500   1153.0075      27292.345     -9269.2679      596.00263     -8673.2653      92345.408      5.014987     
     72600   1680.9277      42999.956     -9068.7398      868.89055     -8199.8492      92345.408      5.014987     
     72700   1368.6153     -34784.438     -9115.495       707.45272     -8408.0422      92345.408      5.014987     
     72800   1174.408      -43498.568     -9109.4845      607.06481     -8502.4197      92345.408      5.014987     
     72900   1219.983       10810.569     -9068.0308      630.62301     -8437.4078      92345.408      5.014987     
     73000   1130.7534      10439.91      -9055.3015      584.49924     -8470.8023      92345.408      5.014987     
     73100   1375.8017      44388.869     -8995.9179      711.16748     -8284.7504      92345.408      5.014987     
     73200   1602.7222      4116.305      -9009.6421      828.46523     -8181.1769      92345.408      5.014987     
     73300   1597.759       5667.9765     -9081.8995      825.89971     -8255.9998      92345.408      5.014987     
     73400   1277.6732      66437.139     -9067.4904      660.44375     -8407.0467      92345.408      5.014987     
     73500   1261.0539     -62035.337     -9053.7372      651.85303     -8401.8842      92345.408      5.014987     
     73600   982.49296     -52411.291     -9186.5373      507.86173     -8678.6756      92345.408      5.014987     
     73700   1209.2756     -33854.954     -8919.3586      625.08826     -8294.2704      92345.408      5.014987     
     73800   1248.5036     -39351.534     -9181.676       645.36562     -8536.3104      92345.408      5.014987     
     73900   1005.9272     -71147.568     -9196.429       519.97518     -8676.4538      92345.408      5.014987     
     74000   1644.8377     -72635.444     -9066.8844      850.23523     -8216.6491      92345.408      5.014987     
     74100   1372.245      -11878.501     -9028.5417      709.32896     -8319.2128      92345.408      5.014987     
     74200   1446.033      -46954.902     -9073.0485      747.47084     -8325.5776      92345.408      5.014987     
     74300   1216.368       55881.136     -9097.1239      628.75439     -8468.3695      92345.408      5.014987     
     74400   1292.1634     -25921.097     -9111.677       667.93387     -8443.7431      92345.408      5.014987     
     74500   1379.4567     -43669.344     -9048.1687      713.05676     -8335.112       92345.408      5.014987     
     74600   861.79958     -43983.497     -9049.6843      445.47396     -8604.2104      92345.408      5.014987     
     74700   1448.0192      22460.128     -9021.7427      748.4975      -8273.2452      92345.408      5.014987     
     74800   1489.2846     -40786.229     -9108.2736      769.82807     -8338.4455      92345.408      5.014987     
     74900   1277.3565      19662.59      -9120.4206      660.28001     -8460.1405      92345.408      5.014987     
     75000   1445.7341      6639.7252     -9153.0638      747.31633     -8405.7474      92345.408      5.014987     
     75100   1377.2531      30412.336     -9142.616       711.91773     -8430.6983      92345.408      5.014987     
     75200   1008.7278     -6778.4931     -9192.9592      521.42284     -8671.5363      92345.408      5.014987     
     75300   1660.6051     -52670.633     -9067.732       858.38558     -8209.3465      92345.408      5.014987     
     75400   892.96277     -7480.2653     -9174.916       461.58256     -8713.3334      92345.408      5.014987     
     75500   821.88694      19818.346     -9194.0421      424.84266     -8769.1995      92345.408      5.014987     
     75600   874.20986      5912.8831     -9238.9535      451.88897     -8787.0645      92345.408      5.014987     
     75700   940.68695     -28433.493     -9238.4473      486.25174     -8752.1955      92345.408      5.014987     
     75800   1096.7247     -27878.939     -9169.7521      566.90939     -8602.8427      92345.408      5.014987     
     75900   1002.0428     -124641.28     -9263.5163      517.96729     -8745.549       92345.408      5.014987     
     76000   889.27913      18600.309     -9265.2019      459.67845     -8805.5235      92345.408      5.014987     
     76100   846.29264      22386.76      -9218.3373      437.45824     -8780.8791      92345.408      5.014987     
     76200   1846.0498      42564.454     -9216.4819      954.24406     -8262.2378      92345.408      5.014987     
     76300   1556.5159     -49281.34      -9127.7054      804.58069     -8323.1247      92345.408      5.014987     
     76400   761.09427      2211.8557     -9138.4396      393.41824     -8745.0213      92345.408      5.014987     
     76500   1311.9164     -68538.332     -9153.3925      678.14442     -8475.2481      92345.408      5.014987     
     76600   1112.5633     -18410.955     -9156.0852      575.09657     -8580.9886      92345.408      5.014987     
     76700   882.82347      8991.9405     -9221.2451      456.34144     -8764.9037      92345.408      5.014987     
     76800   962.222        9312.5043     -9203.7997      497.38344     -8706.4162      92345.408      5.014987     
     76900   1025.3992     -93675.558     -9205.5286      530.04045     -8675.4882      92345.408      5.014987     
     77000   878.76539     -15765.131     -9173.0667      454.24378     -8718.8229      92345.408      5.014987     
     77100   844.46312     -101157.07     -9218.8916      436.51255     -8782.379       92345.408      5.014987     
     77200   1817.6347      21428.553     -9142.2492      939.55596     -8202.6932      92345.408      5.014987     
     77300   1267.6467     -2412.5265     -9194.6604      655.26091     -8539.3995      92345.408      5.014987     
     77400   1295.0009     -38622.842     -9210.4024      669.40063     -8541.0017      92345.408      5.014987     
     77500   1369.2418     -82402.519     -9185.1089      707.77661     -8477.3323      92345.408      5.014987     
     77600   1343.9306      604.63153     -9181.061       694.69295     -8486.368       92345.408      5.014987     
     77700   1172.0073     -181241.2      -9213.359       605.82383     -8607.5352      92345.408      5.014987     
     77800   1479.8437      82633.163     -9148.3592      764.94796     -8383.4112      92345.408      5.014987     
     77900   1188.7837      4907.8436     -9172.7648      614.49573     -8558.2691      92345.408      5.014987     
     78000   884.08645      4415.1888     -9223.95        456.9943      -8766.9557      92345.408      5.014987     
     78100   1034.8478      19177.62      -9220.9462      534.92454     -8686.0216      92345.408      5.014987     
     78200   1051.4569      31825.119     -9283.5016      543.50997     -8739.9917      92345.408      5.014987     
     78300   1066.6126     -17808.689     -9230.6214      551.34413     -8679.2773      92345.408      5.014987     
     78400   1587.1449     -2224.4045     -9201.4861      820.41316     -8381.0729      92345.408      5.014987     
     78500   1420.8891     -127188.35     -9129.4348      734.47365     -8394.9612      92345.408      5.014987     
     78600   1270.188      -64197.404     -9185.1299      656.57458     -8528.5553      92345.408      5.014987     
     78700   1259.676      -24011.723     -9071.8957      651.14078     -8420.755       92345.408      5.014987     
     78800   1001.0253      1693.2119     -9262.7079      517.44131     -8745.2666      92345.408      5.014987     
     78900   1383.4286     -36456.038     -9043.0222      715.10992     -8327.9123      92345.408      5.014987     
     79000   1432.8856     -34107.569     -9137.5885      740.67476     -8396.9137      92345.408      5.014987     
     79100   1315.9279      30202.816     -9103.2525      680.21801     -8423.0345      92345.408      5.014987     
     79200   1239.6047      10733.74      -9158.9341      640.7657      -8518.1684      92345.408      5.014987     
     79300   1238.1693      1979.6981     -9193.8071      640.02375     -8553.7833      92345.408      5.014987     
     79400   1182.271      -32925.29      -9263.1288      611.12926     -8651.9995      92345.408      5.014987     
     79500   960.41219     -9932.3633     -9255.903       496.44793     -8759.455       92345.408      5.014987     
     79600   1542.0373     -37700.044     -9072.5588      797.09653     -8275.4623      92345.408      5.014987     
     79700   1174.633      -82347.11      -9131.8309      607.1811      -8524.6498      92345.408      5.014987     
     79800   1212.5367     -68648.827     -9229.702       626.77397     -8602.9281      92345.408      5.014987     
     79900   1353.7072      28435.176     -9176.1055      699.74658     -8476.3589      92345.408      5.014987     
     80000   1214.362      -60068.586     -9182.9993      627.71745     -8555.2818      92345.408      5.014987     
     80100   1239.2585      70911.358     -9107.229       640.58674     -8466.6422      92345.408      5.014987     
     80200   886.17249     -204689.72     -9270.9311      458.07259     -8812.8585      92345.408      5.014987     
     80300   1277.9868      8084.5148     -9275.6496      660.60584     -8615.0438      92345.408      5.014987     
     80400   954.42727     -21876.436     -9304.6571      493.35426     -8811.3029      92345.408      5.014987     
     80500   2026.8534     -86515.983     -9170.2807      1047.7035     -8122.5773      92345.408      5.014987     
     80600   980.22467      1807.0859     -9169.0925      506.68923     -8662.4033      92345.408      5.014987     
     80700   976.87332     -44892.776     -9262.0976      504.95688     -8757.1407      92345.408      5.014987     
     80800   924.41883      18894.811     -9306.7423      477.84256     -8828.8997      92345.408      5.014987     
     80900   1090.5041     -102469.22     -9232.116       563.69392     -8668.4221      92345.408      5.014987     
     81000   889.04914      56525.69      -9291.6695      459.55956     -8832.11        92345.408      5.014987     
     81100   1194.4316     -72607.994     -9193.6218      617.41521     -8576.2066      92345.408      5.014987     
     81200   1130.1812      232.10782     -9266.9331      584.20347     -8682.7296      92345.408      5.014987     
     81300   961.51128     -25369.524     -9297.5293      497.01606     -8800.5132      92345.408      5.014987     
     81400   759.48459      18096.674     -9240.1313      392.58618     -8847.5451      92345.408      5.014987     
     81500   1370.5452      6091.3241     -9255.7881      708.45034     -8547.3378      92345.408      5.014987     
     81600   826.65866     -360.12757     -9225.2279      427.30922     -8797.9187      92345.408      5.014987     
     81700   1263.0587     -7981.8735     -9206.7099      652.88933     -8553.8206      92345.408      5.014987     
     81800   1367.3946      70176.218     -9158.2424      706.82173     -8451.4207      92345.408      5.014987     
     81900   1186.5011      13170.177     -9087.4847      613.31588     -8474.1688      92345.408      5.014987     
     82000   1377.2387      44465.047     -9180.8892      711.91029     -8468.9789      92345.408      5.014987     
     82100   839.2979      -13619.351     -9205.9199      433.84259     -8772.0773      92345.408      5.014987     
     82200   993.74849      19147.947     -9161.2097      513.67984     -8647.5299      92345.408      5.014987     
     82300   1198.0021      18865.714     -9125.6223      619.26084     -8506.3615      92345.408      5.014987     
     82400   1195.0329     -26749.871     -9173.319       617.72603     -8555.5929      92345.408      5.014987     
     82500   1021.0455      16197.953     -9208.8396      527.79        -8681.0496      92345.408      5.014987     
     82600   1147.1988      2377.5129     -9148.1658      593.00004     -8555.1658      92345.408      5.014987     
     82700   701.94157      29296.851     -9227.382       362.84154     -8864.5405      92345.408      5.014987     
     82800   977.75975     -17036.868     -9155.151       505.41508     -8649.7359      92345.408      5.014987     
     82900   996.54133      23302.011     -9180.4504      515.1235      -8665.3269      92345.408      5.014987     
     83000   759.63887     -79291.135     -9264.6043      392.66593     -8871.9383      92345.408      5.014987     
     83100   909.73532     -8181.5769     -9218.8039      470.25249     -8748.5514      92345.408      5.014987     
     83200   1347.8255     -36617.631     -9135.2811      696.70628     -8438.5748      92345.408      5.014987     
     83300   1204.744      -88077.02      -9158.6941      622.74583     -8535.9483      92345.408      5.014987     
     83400   1205.3395     -23415.256     -9194.4057      623.05361     -8571.3521      92345.408      5.014987     
     83500   743.66459     -9019.9864     -9272.4191      384.40865     -8888.0104      92345.408      5.014987     
     83600   766.6815       12767.969     -9202.1421      396.30635     -8805.8358      92345.408      5.014987     
     83700   1029.8738      117526.89     -9256.098       532.35345     -8723.7445      92345.408      5.014987     
     83800   1155.8923     -32730.107     -9198.2882      597.49384     -8600.7944      92345.408      5.014987     
     83900   1364.0121     -4205.8669     -9232.1822      705.07327     -8527.109       92345.408      5.014987     
     84000   1636.6948     -81066.429     -9172.4793      846.02607     -8326.4532      92345.408      5.014987     
     84100   1180.0543     -114187.77     -9161.2019      609.98342     -8551.2185      92345.408      5.014987     
     84200   1233.6514     -21709.02      -9098.662       637.68839     -8460.9736      92345.408      5.014987     
     84300   1100.7341     -119123.62     -9170.2224      568.98191     -8601.2405      92345.408      5.014987     
     84400   1066.4091     -4637.794      -9165.5228      551.23896     -8614.2838      92345.408      5.014987     
     84500   1113.2214     -33806.793     -9208.7634      575.43672     -8633.3267      92345.408      5.014987     
     84600   1067.1905     -34496.296     -9213.6192      551.64285     -8661.9763      92345.408      5.014987     
     84700   1521.8785     -13156.218     -9158.1309      786.67623     -8371.4546      92345.408      5.014987     
     84800   1181.9775     -6952.9092     -9164.7286      610.97756     -8553.751       92345.408      5.014987     
     84900   1188.3936      42306.521     -9175.1533      614.29409     -8560.8592      92345.408      5.014987     
     85000   1342.0615     -3319.7432     -9193.7319      693.72676     -8500.0051      92345.408      5.014987     
     85001   1325.0916     -47631.836     -9212.7106      684.95486     -8527.7557      92345.408      5.014987     
Loop time of 425.069 on 12 procs for 50000 steps with 4000 atoms

Performance: 10.163 ns/day, 2.361 hours/ns, 117.628 timesteps/s, 470.512 katom-step/s
104.2% CPU use with 12 MPI tasks x 1 OpenMP threads

MPI task timing breakdown:
Section |  min time  |  avg time  |  max time  |%varavg| %total
---------------------------------------------------------------
Pair    | 192.94     | 218.11     | 236.98     |  88.1 | 51.31
Neigh   | 3.8501     | 6.3703     | 8.4655     |  54.5 |  1.50
Comm    | 114.37     | 135.75     | 165.27     | 124.6 | 31.94
Output  | 1.2589     | 1.2984     | 1.3359     |   2.0 |  0.31
Modify  | 36.91      | 38.916     | 42.185     |  25.9 |  9.16
Other   |            | 24.63      |            |       |  5.79

Nlocal:        333.333 ave         412 max         189 min
Histogram: 1 0 0 2 1 0 2 2 1 3
Nghost:        2558.17 ave        2664 max        2508 min
Histogram: 2 3 1 3 1 0 1 0 0 1
Neighs:        35819.9 ave       46804 max       17625 min
Histogram: 1 0 0 2 3 0 1 1 0 4

Total # of neighbors = 429839
Ave neighs/atom = 107.45975
Neighbor list builds = 3066
Dangerous builds = 0
Final density: 5.01498700145992 g/cm^3
Average temperature: 1325.0916209612 K
Average pressure: -47631.8356701019 bar
System init for write_data ...
System init for write_restart ...
Simulation completed successfully!
Total wall time: 0:10:30
