ITEM: TIMESTEP
160000
ITEM: NUMBER OF ATOMS
27436
ITEM: BOX BOUNDS pp pp pp
4.3663850521364580e+00 8.0633614947866690e+01
4.3663850521364580e+00 8.0633614947866690e+01
4.3663850521364580e+00 8.0633614947866690e+01
ITEM: ATOMS id type x y z vx vy vz
4 1 5.99974 6.68756 4.94472 -0.000247143 -1.97364 3.1869
76 1 4.59766 5.67396 5.01486 4.15894 -0.264259 3.51919
1 2 7.03536 5.25394 5.03435 -3.21834 -2.67596 -0.843699
25995 2 7.96222 4.99112 6.84975 1.5249 2.75558 3.63
1454 2 16.0717 6.31745 7.12579 -1.80782 2.98361 -3.06273
25999 2 14.2664 5.48733 6.09224 -3.37398 -0.76503 -0.873631
10 2 16.4626 4.58414 5.03163 -0.488052 -1.51874 -1.56771
1458 2 17.8595 4.60371 6.60845 -1.08387 1.71979 -3.17219
26008 2 16.7865 7.40892 5.57169 0.731964 4.075 5.01706
19 2 19.6646 4.64834 5.54302 4.51994 -3.2473 2.27696
171 2 20.2024 6.63317 5.593 2.8881 -0.924935 1.84742
1391 1 25.3818 4.62571 6.98296 1.38873 4.59534 1.12818
99 1 25.267 6.43197 4.50968 -1.23965 0.148346 3.82785
2840 1 25.4209 5.05937 5.33679 14.0633 -9.39003 -5.03865
2836 1 27.1269 5.22766 5.63972 -13.978 -8.97264 25.2422
2834 1 26.9959 5.30494 7.28959 6.17049 4.70159 14.4894
1537 1 26.4159 6.85467 5.67949 0.70027 1.2087 -3.3991
29 2 33.6311 6.27945 4.92231 -3.56927 -1.15935 -3.61269
27 2 32.0889 4.79996 5.1293 0.75158 -5.82454 -12.5475
31 2 34.5651 5.9595 6.67755 -0.822383 0.703753 6.34193
1481 1 38.6737 5.84723 6.67163 1.36829 0.023282 -0.0689836
26107 1 39.5 6.86448 5.65763 -2.81805 3.8377 3.1203
26028 1 38.4863 5.854 4.86145 0.627086 -1.6089 -1.0115
1482 1 41.8082 6.06589 4.62125 -1.03279 -0.317573 2.18415
115 1 43.5215 5.41723 4.68532 -0.801298 1.76059 1.31254
44 1 42.2118 4.6247 5.29922 0.643651 0.769517 0.137476
1412 2 44.5532 5.39555 6.21591 -0.381862 0.154546 -0.344894
1410 2 46.3916 4.78426 5.51021 0.126338 0.205131 0.584828
26036 2 48.2868 4.64466 4.74016 -0.74319 0.153173 0.202756
27406 2 50.3462 4.62061 4.79553 -0.539145 0.255286 -0.880812
2862 2 52.3359 4.99741 5.10424 0.395109 0.860145 -0.8832
1419 1 51.9948 4.39705 6.62885 -0.359469 1.70177 0.915341
1420 1 55.0879 4.96824 7.174 -0.0246898 -0.600267 0.79304
27416 1 56.4041 5.93277 6.71981 -0.286907 -0.435573 0.580624
53 1 57.9605 6.89621 6.40572 -0.263737 0.0300684 -0.768373
55 2 58.8993 4.6654 5.9079 0.490879 -0.183481 0.750885
26047 1 57.9032 5.47413 7.28635 0.342739 -0.387356 -0.194134
1422 2 61.1549 4.74207 6.02344 0.266518 1.30239 0.789148
60 2 62.4196 6.04877 7.0566 0.335333 2.24206 -1.18789
133 1 66.5442 6.29756 5.97395 1.1307 -4.41008 -3.84345
1426 1 67.6269 5.05572 5.67818 6.21629 2.23241 -4.95582
1430 1 66.2669 4.96475 6.92177 1.00309 -1.10764 1.22346
26055 1 67.8908 4.71849 7.28262 -0.752812 0.0752606 -1.42782
1436 1 68.693 7.40259 6.88032 -0.227608 0.462551 -1.18413
67 2 72.8073 5.3543 6.55581 1.04317 -0.483708 1.86664
1513 2 73.3595 6.31656 4.79516 1.23281 1.193 -0.27937
72 2 74.7591 4.68124 6.66708 -0.400997 -1.85052 -1.3194
65 2 75.1378 6.58721 5.8781 -1.27376 -1.60902 1.40579
2882 1 77.7007 4.44644 6.45259 2.06184 4.32524 4.09872
1448 1 78.4522 5.26014 5.13248 0.502324 -0.769648 1.481
26068 1 79.884 7.08158 4.85412 3.00976 -0.774177 1.09284
1521 1 6.54231 7.67381 6.20597 -2.62802 -1.90648 3.39838
79 1 7.1816 8.714 5.03572 1.8884 0.363223 0.283086
227 1 7.51717 9.95763 6.14673 2.99271 0.32968 -3.90616
26075 1 10.2459 9.75196 4.74872 -1.97242 -1.43304 -2.13359
1525 1 9.196 10.0393 6.01652 -6.0332 -0.935197 -1.37039
2969 1 10.0812 9.31728 7.30908 1.27306 -2.16685 -0.300547
87 1 13.0781 9.7927 6.0837 -0.724438 -1.21628 -1.46885
1527 1 11.5482 9.92538 6.79803 0.161356 0.999932 -0.95039
1533 2 15.3049 8.40816 6.52937 -0.93092 0.228401 1.33787
1457 1 14.535 9.33079 5.24593 2.33944 -5.79922 0.0876984
96 2 18.74 8.12051 5.57698 0.193279 -0.772738 -5.63799
1620 2 19.4921 10.0649 6.53551 -2.12469 -0.378448 -2.51331
1468 2 20.255 9.23411 4.80134 -0.962064 -4.62135 1.13118
22 1 24.8948 9.83641 4.88348 -11.2211 -6.21779 -9.54346
26091 1 25.942 8.60916 5.61009 -12.1014 -6.22518 0.173604
1538 1 26.9299 8.02312 6.74418 1.55509 -6.08423 -8.99191
1474 2 34.4455 9.99001 7.19478 0.373214 -1.08318 -0.0202434
30 2 34.5879 8.09043 4.60833 -3.5696 1.29284 1.80696
32 2 35.2177 7.93795 6.67874 -3.81703 -1.72243 -4.77577
107 2 36.4011 9.58155 7.05755 -1.92995 -2.81645 -0.216581
26114 2 50.7193 9.99097 6.37712 0.252021 0.0448481 -0.430547
26195 2 53.8095 8.16368 7.16236 -0.32872 0.413968 -0.0112351
126 2 55.4162 9.12637 6.2545 -0.985874 0.503757 0.377063
26045 1 56.9989 8.28107 6.4024 0.193089 0.247997 0.726608
26048 1 58.9419 7.79688 7.40801 -0.470295 -0.858986 -0.295102
1502 2 62.1937 7.66491 5.80197 -0.289046 -0.182438 0.0910732
140 2 62.5991 9.64466 5.31079 -1.96226 -0.517713 -0.490806
64 2 62.7871 10.3796 7.23257 -0.446957 -0.460787 -1.63937
27420 1 67.6401 7.47625 5.6004 -0.252031 1.73415 -0.675632
68 1 68.8712 8.54824 5.47729 2.26101 0.907619 -1.94549
26060 1 70.1731 9.484 5.86451 0.256757 1.70435 1.36215
143 1 69.6326 9.80125 7.40086 -0.316969 -0.205087 -0.867696
71 2 74.0301 7.99894 6.95849 2.23413 1.52424 -0.239145
69 2 76.3483 8.0614 5.02996 -1.42604 2.45181 -0.190114
145 2 75.5231 9.32544 6.48351 2.01036 -2.96081 1.59145
150 2 77.4524 10.1334 6.67739 0.661742 1.26459 -0.802457
74 2 78.0324 8.16341 6.2835 -4.07447 0.615386 2.08481
77 2 79.2215 8.69725 4.68788 0.635035 -2.62382 0.425973
8 1 9.85705 11.5493 6.31821 -0.714863 -0.788244 4.85143
83 1 10.6475 12.9756 6.76083 -5.69585 3.31483 -1.18301
1529 1 11.2124 10.9708 5.48272 -1.30171 0.907446 -0.706892
1526 1 12.0876 12.1829 6.30173 -2.53471 -2.0919 -1.06461
26080 1 13.4242 11.3915 5.68872 -1.10066 3.96943 1.23273
1605 2 13.1995 13.2552 6.99405 1.99363 2.19278 -3.79161
26004 1 12.5216 10.6398 4.52537 1.27631 -4.8007 -0.309252
16 1 14.7409 11.5653 4.69541 1.83956 0.629949 -0.875414
24 1 22.8562 12.3942 5.00876 -8.11562 1.98353 5.72411
97 1 23.7077 11.0116 4.52102 -5.10613 4.5946 -0.155241
95 1 24.8311 11.3008 5.72971 -1.42366 4.06868 3.42875
26167 1 24.0024 12.669 6.23757 3.35657 -6.25975 1.28502
1626 2 30.4027 11.8738 6.86197 1.13113 0.254211 0.0415994
1625 2 32.0298 11.1951 5.77725 1.09157 -1.05214 0.458081
1629 2 33.6306 10.7428 4.51878 2.03093 -0.110843 2.68324
185 2 35.3989 11.2378 5.86411 1.95886 0.395529 0.811361
259 2 35.285 12.9692 6.96874 0.441129 -0.685641 -0.426986
26180 1 36.381 13.4936 5.61874 -0.395137 -0.168617 -0.0159092
1631 1 37.6718 12.5216 6.14967 1.62806 -1.00691 -0.868302
189 1 37.834 12.0391 4.52873 0.105972 -0.873576 -0.637566
26108 1 38.6064 10.6807 5.13413 -1.43482 -1.23319 0.479643
187 1 38.61 11.2218 6.71207 -0.787307 1.31162 1.10361
116 2 43.8609 11.83 5.7757 7.23287 -1.23887 0.706813
195 1 46.5336 12.5785 4.61334 1.87024 6.3946 3.4463
267 1 46.7904 13.2066 6.13441 2.90292 1.86653 -1.75706
1562 1 45.6239 11.2451 5.18791 -10.9274 5.58513 -0.343346
26188 1 46.0295 11.8366 6.68841 6.49542 -4.87392 9.62322
197 2 51.7139 11.5062 7.30519 -0.407879 -0.115321 -0.14006
26191 2 52.6046 12.0256 5.51458 0.215276 -0.0473783 0.0288642
26120 2 54.0538 10.5855 5.82274 0.535022 0.41444 -0.287641
26199 1 58.0746 13.2067 6.12521 -1.69714 -0.370732 0.492412
208 1 58.8997 12.0153 5.29407 0.767053 1.26977 0.557636
1721 1 57.1779 13.4198 4.67357 0.447965 -0.794958 0.82081
1657 1 59.2347 13.1222 7.39173 -0.183361 0.454415 -0.613558
1654 1 60.1382 12.0363 6.40961 0.267151 -0.662462 0.382954
136 2 61.0815 11.0403 5.10474 1.34743 1.39164 -1.32503
135 1 61.4331 11.6289 7.39117 1.28562 -0.877076 -0.964287
217 2 65.0648 11.3391 4.49039 1.10486 -0.846677 -0.103205
26212 2 65.9622 12.2646 6.08334 1.40015 1.18633 -0.702515
1662 2 68.9416 12.8896 7.30187 -0.990998 -0.0139629 0.219676
1666 2 78.321 10.5906 4.86881 -0.938022 2.33541 -0.235575
152 2 79.8593 12.6258 5.55501 -1.37436 0.0806523 3.42307
160 1 9.02396 14.9329 7.13777 3.56097 1.05215 1.4537
26152 1 8.54582 16.4817 6.78004 1.10111 -2.81368 -4.5518
163 1 10.6525 14.5774 7.28506 1.06385 -5.27385 -0.468782
88 2 13.2209 14.5099 5.34292 -4.5256 1.26112 1.56586
92 1 15.9969 13.7143 4.53819 0.0982473 -4.60143 1.4734
162 2 13.9275 16.4322 5.24877 -0.0615395 -2.54083 -3.92165
1611 2 15.1043 14.1397 6.06122 1.00592 -0.600342 -2.60518
168 2 14.8643 15.9081 7.0501 -2.6928 2.69718 -3.8469
1613 1 22.1286 13.8578 5.54733 4.01013 -2.51046 -1.08604
26239 1 21.5663 15.3096 6.33864 -3.24418 -0.692826 -2.96073
26168 1 21.917 16.0336 4.82562 4.38079 -0.657767 -4.64034
174 1 20.3193 15.5458 4.48412 -0.777941 -4.05985 0.300694
175 1 22.8546 13.5312 7.06984 3.33966 -0.541643 0.444095
26096 1 24.6729 14.1358 5.70454 -3.06711 -2.41891 -2.87612
26163 1 23.3822 14.8539 4.91225 -0.805567 -1.9796 -0.893996
26171 1 25.1079 15.48 4.91118 -3.04636 -0.84566 -0.731538
1697 1 26.3907 13.6367 6.50505 -0.553866 -0.98131 -0.00205833
181 1 26.0449 15.2446 6.24419 -4.09294 -0.543674 0.108188
179 1 27.7784 14.5649 6.25617 -3.09751 -4.95154 -1.36791
26176 1 27.3008 15.8307 5.30603 0.386672 -1.94217 -1.9441
183 1 28.8378 15.8311 6.26971 0.0170518 -1.90067 -1.08591
184 2 30.9796 13.7223 6.1722 -0.270131 0.970292 0.0634309
3219 1 30.5496 15.9615 6.86567 0.551166 2.51663 0.617639
1701 1 31.8153 14.8823 7.17903 -1.12011 -0.735982 0.189324
1630 1 36.8957 15.0724 5.91707 -0.1766 -0.352248 2.94568
335 1 36.7076 16.4086 7.19671 -3.45975 4.17334 -0.813493
264 1 37.9627 16.3438 6.13724 2.06754 0.682091 -0.0622974
1636 1 38.521 13.8071 6.87731 1.48882 2.03191 -0.272647
1706 1 39.1084 15.3709 6.95151 2.22424 -0.495461 -1.16936
1557 2 42.949 13.6529 6.19971 0.449618 -2.46224 -0.428328
192 2 43.6222 15.1786 4.98787 -0.402038 0.357982 -0.147623
196 2 49.4635 16.2385 5.5845 0.187714 -0.0404386 0.12041
121 2 51.725 13.8679 5.87616 -0.272198 -0.565214 -1.6561
275 2 51.2713 15.7837 6.51285 0.274633 -0.536845 -0.000431085
1651 1 57.1011 14.1201 7.17169 -0.456935 1.06878 -0.368254
203 1 56.5291 14.9139 5.09672 1.16873 0.0264688 0.0995436
207 1 57.5013 15.5263 6.31132 -2.85249 0.729815 -2.42523
26200 1 58.9641 15.6199 7.13287 0.428191 0.869009 2.96879
212 2 62.5184 14.2926 4.71648 -0.0119999 -0.227624 -1.16998
1733 2 63.7517 15.8973 4.7085 0.0457642 0.95971 1.81875
26132 2 65.7801 13.5371 4.4802 0.0100995 -0.882325 -0.567479
1661 2 65.6083 15.3828 5.48152 -0.247258 -0.919315 -0.0420757
1737 2 67.5308 16.1015 5.20042 0.662097 0.0444803 1.78084
295 2 67.9563 14.3129 6.19698 -0.224723 -0.814113 0.0956318
224 2 70.2321 15.0006 5.96922 0.784219 2.45874 2.26673
373 1 73.9509 15.4746 5.80786 -0.0101219 -0.142795 -0.437672
1741 1 72.2954 16.3595 7.14933 -0.931423 -0.782346 -0.757483
297 1 72.0908 15.3666 5.81526 -0.128049 1.13616 -1.91393
26363 1 73.0024 15.7938 4.478 1.74279 -2.40951 -0.687476
300 1 74.3053 14.002 5.06475 -0.142699 -2.85767 4.2942
228 2 80.0187 14.1716 6.81735 -0.230109 0.164216 -1.17232
305 2 78.4899 15.555 6.67346 0.224096 0.0291988 0.115714
1819 2 80.148 14.3884 4.60352 0.705124 -1.24402 -2.20978
158 1 7.12511 19.2647 5.80789 -6.05598 -3.06423 0.154665
303 2 4.9691 16.9317 7.33134 -1.46716 -1.20953 0.909193
231 1 8.30501 18.0846 5.01762 6.71978 7.7799 -0.675583
1753 1 7.52675 17.7889 6.44706 -3.24945 0.6219 -0.0622066
1746 1 9.45776 18.5932 6.12964 -2.53807 -5.67923 -4.46614
1681 1 10.0174 17.2375 7.03945 0.707042 1.22448 -1.76273
240 2 12.7292 19.2366 6.71513 3.1225 1.23267 -1.35092
26312 1 17.0125 19.2189 4.8483 0.0810242 -0.752923 0.678061
26237 1 18.5333 18.5196 4.83921 -0.257471 -0.952022 3.31513
26311 1 19.1239 19.3371 6.16859 0.681624 1.48251 2.67708
397 1 20.2396 18.1416 6.50247 2.69339 -4.72298 1.50939
252 1 20.9024 16.718 7.15904 2.27728 -2.53598 -3.94253
251 2 26.878 19.4749 6.3252 -0.968689 1.19222 0.888778
331 2 27.305 18.7339 4.45942 0.333149 -0.567711 -0.44944
255 1 29.5023 17.225 6.8392 0.345555 -1.87132 2.9172
1777 1 31.1999 19.2624 6.56587 -0.139756 0.264866 1.6408
3142 1 31.7819 17.105 6.97244 1.0673 1.87519 -1.25514
1699 1 32.6774 18.5441 7.0209 0.479871 0.229217 -1.6752
339 1 34.6575 19.5999 6.4127 -1.43825 1.32939 -2.25767
411 1 35.0552 18.5383 5.1935 1.33423 -1.6801 0.247207
1857 1 37.0462 17.2957 5.10266 0.295406 1.04784 0.307063
26327 1 35.9408 17.6256 6.34044 -2.97453 1.11677 -1.24246
341 2 42.4803 17.1134 4.66012 0.107576 -0.163928 0.713406
268 2 43.0048 18.6686 5.92943 -0.43231 -0.682996 0.029707
194 2 45.6947 17.6262 4.59487 -0.248966 -0.344001 -0.911532
1785 2 44.742 18.8179 7.04122 0.24559 0.164395 0.106954
1714 2 46.8552 19.338 4.38851 -0.441911 0.000346437 -0.689057
272 2 44.2953 19.1961 4.37002 -0.480684 0.756331 0.244689
1638 2 49.4556 18.0148 6.67586 -1.12745 0.0903087 -0.180739
26263 2 47.5811 16.8579 4.98742 0.0460326 -0.150495 0.224605
1718 2 51.3841 17.6921 7.308 -0.674057 0.081627 0.311311
26272 2 54.7866 17.3345 5.77631 -1.61748 -2.22402 0.496968
1800 2 54.7011 19.4015 5.51099 -0.845332 2.27826 -0.720893
357 2 58.3922 18.8261 6.75379 2.46769 -3.42446 1.85203
282 2 56.7434 17.6549 6.41278 -0.215568 -0.929664 0.026864
26357 2 60.1087 19.0155 5.61112 -0.257477 1.26694 -1.55274
367 1 65.4955 19.3559 5.15543 -0.621943 -1.39592 -1.08568
296 1 65.8557 18.2494 6.34459 -1.67225 -0.313417 0.0986433
291 1 67.164 19.3508 4.92946 -0.0236125 0.563275 0.294085
26287 2 69.5439 16.6058 4.86631 -0.269499 0.0367861 -0.0860435
26288 2 71.2216 17.7498 4.44834 0.356786 1.25977 -1.05078
26291 1 73.7178 16.9698 6.54115 -0.449869 -2.9374 -0.973545
299 1 73.5289 18.5232 7.06359 -1.25531 -1.35978 -0.983526
1893 2 75.5107 19.5557 5.55201 -1.1398 2.47906 0.387158
26147 2 79.8182 16.877 5.8413 1.05551 0.22572 -1.06401
26304 1 6.08277 21.3406 4.5261 0.432785 0.426828 -1.51322
236 1 8.63256 19.9756 5.74028 1.89537 5.24511 -3.71632
311 2 8.51852 22.175 6.69069 1.95911 5.00619 1.89173
312 1 7.58538 21.4707 5.26246 0.679214 -1.00489 -2.84625
26232 2 10.7413 22.4169 6.31589 0.481526 -2.28756 -0.71655
237 2 12.2963 21.228 6.98699 1.2999 0.215839 2.41213
238 2 14.157 20.6416 6.29815 0.683443 -0.772041 -0.266397
26231 1 15.7178 20.0572 5.55275 -0.00765769 -1.71803 -1.06515
244 1 16.8979 21.2459 5.74041 0.476118 -0.272859 -1.22937
1761 1 18.1982 20.8094 6.7081 -0.456358 1.52987 0.537237
328 2 24.6181 21.901 7.06147 0.951083 -0.989525 1.18435
1762 2 23.5046 20.177 7.2442 -1.16849 -3.01377 0.357777
26319 2 27.8288 21.2756 6.04107 -3.96839 -0.614567 2.10781
26323 2 31.1722 19.7374 4.73031 2.82847 -1.08312 -1.49677
329 2 29.4377 20.898 4.73483 0.36234 3.54183 1.83573
1847 2 28.8876 20.0092 7.23534 2.20397 1.50429 0.409544
333 2 32.8169 20.9188 4.40323 0.0197125 -0.578154 -1.21696
1778 2 36.3164 20.3376 6.06167 -0.528268 -0.236147 0.322143
1702 2 36.3992 22.1046 7.1074 -0.0373969 0.104459 -0.231056
1784 2 38.1794 19.8907 6.76138 0.28245 -1.02083 -0.729672
343 2 40.2655 20.7783 4.75364 -0.290946 0.509562 -0.244035
1781 2 40.1659 20.4512 6.77834 -0.0297731 0.0477928 0.360139
26407 2 39.2861 22.5308 4.66158 0.102631 0.113057 -0.195753
1786 2 41.1978 22.5169 7.14923 0.0816595 -0.141373 0.154227
1783 2 42.1917 20.288 6.96115 0.403276 -0.180858 -0.34965
270 2 45.5212 20.1783 5.71446 0.894473 -0.205584 0.185795
356 2 50.2822 19.6877 5.77973 -0.157399 0.194055 0.0518574
26419 2 51.2028 21.3132 4.86534 -0.251686 0.452053 0.200861
1794 2 51.9356 22.0331 6.6482 -0.156471 0.667178 -0.257961
353 2 52.9399 20.2682 4.46388 -0.713883 -0.331792 -0.51448
355 1 54.4251 22.6367 4.91916 0.554412 0.607451 -0.0865726
368 1 63.1901 21.8338 6.9279 0.826153 -0.508685 -1.50173
365 1 64.0827 22.2999 5.63031 1.55894 0.331492 -0.527337
1809 1 65.0188 20.9865 5.2496 0.62693 0.441523 0.115623
363 1 65.1407 21.3563 6.86153 -0.309016 0.86231 -0.1904
1734 1 65.7889 19.7963 6.96211 -1.18729 1.08894 -1.31175
26360 1 66.7269 21.9543 7.04238 1.00815 -0.36349 -0.871
1813 1 67.0561 20.579 6.09866 0.942661 -0.766372 -2.72875
362 1 66.5629 21.5816 4.81413 -0.99 -0.402228 -1.32694
371 2 70.1804 22.1649 6.1626 0.344112 1.45969 0.0841764
1738 2 70.7614 20.8019 4.83194 2.34356 0.708273 0.963793
1817 2 73.7461 20.2112 6.85027 -0.229333 -1.66047 2.76493
447 2 72.7552 21.0138 5.18423 0.881236 -1.05038 -2.38617
1821 2 75.5054 22.4059 7.15825 1.21337 0.0223409 1.31733
26368 2 74.6881 21.1354 4.50473 -2.3813 0.704188 -1.59485
26447 1 79.5344 22.0966 4.73369 0.431118 1.88011 1.97614
26307 2 9.3047 23.6538 5.54706 -2.87887 -2.75349 1.34877
313 2 12.1248 23.8277 6.86721 1.17576 -0.975961 -2.05715
26383 2 13.1717 25.5869 6.78007 1.10555 0.0426944 -0.503623
26308 2 12.119 23.542 4.86758 -1.09978 0.55806 -0.450895
389 2 10.6667 24.9907 4.72738 -0.291956 1.62912 -0.292546
26399 2 24.0556 23.7865 6.422 -0.264599 -0.0259396 -0.269887
26393 2 25.2842 24.7747 5.12237 0.597481 0.545375 0.17109
256 2 26.3081 22.7189 6.22947 0.926107 -1.02941 0.181846
26397 2 26.3952 25.6554 6.59633 -0.0623327 0.140478 0.251405
406 2 27.4713 24.2593 5.54766 0.794986 0.721551 -0.660296
327 2 28.7444 23.0381 6.67 0.61151 0.586575 0.406387
24951 2 30.2563 22.6787 5.34218 0.765085 0.752573 -0.394451
1849 2 35.5692 23.4024 5.74241 -0.412981 -0.184983 0.827026
408 2 36.3773 25.008 6.75728 -0.500032 -0.528361 -0.264375
340 2 38.114 24.766 5.70412 -0.138151 -0.770097 -0.194242
338 2 39.5191 23.4678 6.48057 0.0349016 -0.171263 -0.90455
26413 1 43.679 24.8219 6.76163 1.68031 1.13786 -0.795529
421 1 46.9315 24.5349 5.99999 -1.52576 0.6854 0.723139
26336 1 45.2498 25.2558 6.28451 1.20747 0.567434 -0.39272
26338 1 45.0013 23.9393 7.29466 -1.20045 -1.27121 0.588962
26411 1 48.4791 24.3235 5.32294 0.392296 -1.62584 -0.824758
427 1 49.4651 23.3701 6.30399 0.548219 -0.282996 0.727393
428 1 49.9508 25.4336 5.16403 0.196544 0.941507 0.03463
1870 1 49.577 25.0816 7.40743 0.869725 -0.0897865 -0.462044
1871 1 50.8907 24.2483 5.94869 0.0624746 0.362972 0.842849
1873 1 52.4534 23.6957 6.35535 0.1592 -0.507361 -0.179423
431 1 52.7808 25.3336 6.5384 -1.00364 1.00723 0.128446
3317 1 51.2038 25.4163 7.13373 -1.34526 -0.315897 0.53746
26276 1 56.0509 23.013 4.97912 0.336711 1.06961 -0.146343
1798 1 54.1411 23.455 6.37925 0.124844 -0.982999 1.25834
26271 1 54.1533 24.9756 5.66553 0.283781 1.74235 -0.137941
26423 1 55.8159 23.4264 6.57045 0.274257 1.28973 0.112976
26280 1 61.8541 24.6091 4.69319 -0.0128743 0.208276 -1.75161
26356 1 61.9873 25.4722 6.11841 1.22786 0.768309 -1.30849
439 1 63.1899 24.3848 6.60906 0.561406 1.63258 -0.000255421
1806 1 64.1401 23.1461 7.26869 -0.948383 -0.671751 -0.293742
26351 1 63.1078 23.5855 5.1104 -1.71257 -0.739253 0.0363533
26359 1 66.7352 22.9982 5.72329 -1.52012 -0.49467 -1.96097
443 1 67.5201 24.2573 6.49254 -0.232117 -1.68777 -3.1079
26435 1 68.3742 25.6093 7.06391 0.471574 0.287535 -1.58138
1814 1 68.8435 23.2566 6.64945 0.114316 -0.0348564 0.127684
26444 2 72.6259 23.0554 4.65643 -0.130896 -0.199458 -0.59283
26521 2 74.8906 24.3301 6.75018 -0.941427 0.688449 1.60215
376 2 74.664 23.1173 5.11944 -1.16271 1.23381 1.66838
381 1 77.82 23.6906 6.45607 -0.334976 0.122223 -0.981446
374 1 78.7781 24.9011 7.16456 -0.556536 -1.05 0.284152
26443 1 78.3336 23.2248 4.89753 1.01163 -0.313206 0.557984
461 2 9.83369 26.8629 4.55468 -0.621523 0.704211 0.796818
307 2 11.0107 27.474 6.11914 -0.716237 0.0287352 -0.200537
465 2 12.8382 27.5571 7.05176 -0.644242 1.85852 -0.889858
1768 2 15.9608 25.9215 5.85896 0.523564 -1.13222 -1.84453
26384 2 14.1112 26.7351 5.40135 0.00459785 -0.187519 0.999866
393 2 15.2292 28.1628 4.39419 0.340845 1.69231 0.543745
1837 2 16.5755 27.862 5.93267 -0.506349 -0.201986 0.0427623
395 2 18.1382 26.5774 5.9172 1.052 -0.00203127 0.468577
399 2 19.8602 27.3598 6.80291 0.407627 0.993751 0.240024
475 2 21.0963 26.5916 5.34382 0.894707 0.0980549 0.886181
477 2 23.7615 25.9451 5.80903 -0.23854 0.736543 -0.235064
1930 1 30.993 28.7391 5.52247 0.118513 0.353029 -0.0312634
26475 1 30.4072 27.5624 4.49738 -0.00014033 0.11141 0.306531
1854 2 36.906 26.1955 4.9068 0.988309 0.306518 0.484289
26406 1 38.9574 27.6604 5.53182 0.0177508 -0.00979886 0.294808
491 1 40.3084 28.2188 4.68528 -0.188844 0.521432 0.381147
26563 1 39.7184 28.6831 6.84543 -1.13641 0.164485 0.464984
418 1 46.5422 26.1219 5.68017 -1.56223 -0.831848 -0.463418
26487 2 45.7871 27.7338 6.06969 0.606992 -0.484258 -1.19689
345 1 47.8854 26.7474 4.87979 0.983239 -0.20385 0.488033
426 1 48.7401 27.8392 5.81455 0.0869175 -0.440361 0.38323
26495 1 49.4657 26.459 6.43625 -0.402411 -0.39742 -0.0670899
508 2 55.7859 28.4339 5.81753 1.09522 0.16039 0.187659
1949 2 57.8017 28.439 6.29432 1.89846 0.860012 -0.282187
1802 1 60.9894 27.5022 6.89026 -0.0978361 -0.640997 0.935619
26504 1 59.4905 28.1632 6.55172 -2.43973 -3.99788 4.08473
1878 1 60.7776 26.5052 5.55871 1.07108 -0.0920753 -0.779663
511 1 59.5708 27.5284 5.01989 -0.537316 -0.364796 0.907377
1881 1 62.318 26.5818 7.36316 1.01484 0.752207 -0.239681
1962 1 67.0652 27.7316 5.81345 -0.431452 0.673787 0.0414491
26583 1 66.5845 28.6567 7.16835 0.435501 0.192794 -0.392167
597 1 65.7145 28.295 4.90696 0.163041 -0.0294196 0.389277
515 1 68.4706 27.2898 6.73363 -0.550996 1.8984 -0.116418
514 1 69.0691 28.6712 5.91251 0.924347 0.211961 -0.759105
456 2 73.8239 26.1421 6.03267 0.795562 0.0211669 0.239856
1894 2 72.7142 27.8413 5.86065 -0.202102 -0.156477 -0.411409
450 2 75.6589 27.8539 4.38987 -0.671306 -1.82713 1.63827
459 2 5.61662 30.8255 6.01032 -0.565304 0.476827 0.110283
26452 2 5.35495 29.0457 5.05753 1.5396 0.851203 -0.132502
1914 1 16.743 30.9537 6.73522 -0.238234 -0.573871 0.133477
26463 1 18.2363 31.681 6.29935 1.17659 1.67685 1.30299
470 2 19.1907 31.2926 4.87248 -0.166088 -0.161749 0.111101
1921 2 19.6227 28.9398 5.4847 -1.05917 0.0663854 0.756242
471 2 21.4197 31.665 5.10121 -0.38379 -0.276462 0.466447
1929 1 31.3343 29.2487 7.08422 -0.15705 -0.107748 -0.478338
483 1 31.8776 30.8211 6.86334 0.207268 0.652828 0.156075
26479 1 31.8778 31.7439 5.24977 -0.389072 0.503046 -0.0866438
412 1 31.9163 29.9306 4.76682 -0.0551583 -0.0678423 -0.919353
1933 1 33.0728 30.6736 5.70707 -0.0263359 0.393856 0.0648527
492 2 34.3679 30.6888 4.52059 -1.25773 0.343865 -0.195107
26632 1 38.3989 29.1498 5.96377 -0.725876 -0.187367 0.663767
1940 2 38.3228 31.5878 5.67096 -0.501581 -0.0585444 -0.642242
1934 1 39.1789 30.1852 4.89638 -0.127675 -0.524931 0.478707
416 1 40.5664 29.5834 5.68606 0.0194474 -0.0291053 0.266084
414 1 41.4259 30.7827 4.82093 0.132468 -0.695078 0.347761
1941 2 44.6088 31.6617 6.97952 0.32429 0.13833 0.362958
502 2 44.7755 29.4451 6.63198 0.106672 -0.308689 -0.228508
1945 2 44.8978 28.9256 4.64332 0.483982 -0.365997 -0.152934
503 1 49.2723 28.8042 7.10879 -0.699861 0.274962 -1.1318
498 1 48.495 30.6092 4.78533 0.519173 0.8941 0.151575
26490 1 48.9972 30.2852 6.31997 -0.315203 -0.706792 -0.133244
26571 1 52.1547 31.7539 5.93667 1.19255 1.31933 0.578933
1946 2 52.4215 30.4452 5.00796 1.61751 0.380242 -0.541224
436 2 53.9971 29.2686 5.40453 -0.0190045 -0.192743 0.55713
587 2 61.2036 31.1911 4.55208 3.81878 6.18994 -1.20075
1958 2 65.3742 30.7682 7.27678 0.225245 -0.247983 -0.426266
26584 2 64.1798 31.8206 6.0231 0.295885 -0.540103 -0.684818
595 1 67.8628 28.8212 4.75974 0.693016 -0.275491 -0.798104
520 1 65.6541 29.5355 6.07175 0.159811 0.68917 -0.203719
26515 1 67.0392 30.4438 5.67811 0.721097 0.44184 0.771875
522 1 67.9534 29.5979 6.81444 1.63468 -1.7575 0.207514
518 1 68.4465 30.3957 4.50612 0.196741 0.352762 0.490746
525 1 69.8599 30.0671 5.35759 0.581885 -0.302918 1.26159
601 2 71.355 29.341 5.77904 0.656464 -0.468447 -0.0111265
1965 2 72.8968 30.6092 5.35788 0.46161 -0.0115973 -0.882316
526 2 74.222 29.0456 5.22404 -0.213349 -0.193706 0.282775
26527 2 6.42942 32.6554 6.3658 0.259903 -1.27457 1.31732
536 2 6.30821 34.429 7.40787 -0.143848 -0.191415 0.494255
2049 2 4.40311 32.7916 5.98836 0.0656788 0.69055 0.123598
534 2 8.50512 32.57 6.56318 0.409776 0.11907 -0.349232
26532 1 10.3521 32.5736 6.28276 -1.37334 0.644119 0.719592
535 2 8.40057 34.4963 7.35253 0.722832 -0.190504 1.65842
538 1 12.4639 31.9019 4.63608 -0.849172 0.369154 -1.10247
26531 1 12.0025 32.4108 6.18698 0.233742 -1.45933 -0.280712
539 1 13.2966 33.4864 5.991 0.450264 0.806856 0.153691
537 1 10.9929 33.4528 5.03434 -0.964191 0.733282 1.56615
26526 1 12.5957 33.5781 4.45492 0.0154512 -1.41448 -0.705881
466 1 15.4225 32.0086 6.94935 -0.837685 0.851861 -1.02897
468 1 16.2486 33.3519 6.33862 -0.390872 -0.24221 -0.471157
543 1 15.0863 34.3161 7.12867 0.242755 -1.03627 -0.0240664
544 1 14.4135 34.722 5.66168 0.920306 -0.12564 -0.218607
9668 1 14.0954 32.9893 7.40937 -0.458159 0.206353 0.751036
542 1 17.042 34.5659 5.44189 -0.862162 -1.08475 -1.39001
476 2 21.4392 32.0318 7.10685 0.72351 0.79737 -0.365471
551 2 22.6537 33.6517 6.9169 -0.337088 0.731384 0.915266
26543 2 22.7331 33.2514 4.88329 0.110508 -0.233295 -0.712676
556 2 24.6256 33.1485 7.10938 -0.0859456 0.210741 -0.526164
554 2 24.7302 32.6281 5.10259 -0.174597 0.00768563 -0.0121608
484 2 28.4507 32.3205 6.66187 0.145325 0.138271 -0.225037
559 2 26.7574 32.2438 5.4703 0.0876289 0.501077 -0.271438
26480 1 31.064 33.2073 5.50362 0.542451 -0.0203387 0.253822
26631 1 30.2001 34.6532 5.51199 0.121609 -0.919463 -0.954745
1926 1 30.323 32.6584 6.93142 2.12203 0.0790172 0.0856262
26552 1 29.556 34.715 7.06974 0.602392 -0.384255 -0.142703
486 2 35.3464 32.2225 5.44058 0.0823137 0.213363 0.6026
2006 2 36.0242 34.0006 6.25937 -0.184396 1.2895 0.391774
26559 2 38.0435 33.614 5.89785 0.293716 -0.516578 -0.982167
2013 2 40.5004 34.634 6.88522 0.789621 -1.03073 2.63923
26488 1 42.0079 32.3549 4.98592 -0.851119 0.496571 -1.48827
1939 2 43.1368 33.0457 6.52135 -0.113913 -1.94783 0.203043
570 2 44.6595 34.3541 6.04314 1.56069 -0.521683 0.177472
574 1 46.6598 34.1972 4.86606 -0.177604 -1.00412 0.701121
26645 1 45.0664 34.0816 4.42329 0.774417 -0.960947 -0.133032
26491 1 48.7061 31.9689 5.69124 0.830359 0.159327 -0.237744
26569 1 47.2531 34.0341 6.43477 1.13156 -1.75198 0.998538
573 1 48.3496 33.4702 5.01472 -0.468953 0.548834 0.255903
26568 1 48.9131 34.2737 6.3707 0.0687774 -0.752351 -0.308473
499 1 49.377 32.7734 7.01856 -0.295991 -0.0841625 0.76573
26496 1 51.5925 32.9727 6.9245 0.258131 0.0429673 -0.363588
2022 1 52.4375 34.0704 5.94902 0.99094 0.850721 -0.794078
578 1 53.4961 32.7597 5.75797 -0.300937 -1.31859 0.512237
660 1 54.4846 33.9456 5.00438 -1.08895 0.0772473 -1.01756
26580 1 55.7165 33.7632 6.16718 -1.76813 -0.0908473 -0.904708
1954 1 57.063 33.4953 7.13393 -0.00566147 0.978916 -0.262097
2037 2 60.4715 32.561 5.86092 0.11245 -1.20301 0.25099
592 2 62.2165 33.6412 5.62884 -1.12398 -1.04536 -0.54149
1957 2 63.02 32.8636 7.36763 0.494435 0.134712 -0.725475
589 2 63.0151 32.179 4.37455 -1.37479 0.255317 2.40578
600 2 70.0379 34.1514 5.7271 0.979025 -0.208543 -0.132329
26591 2 70.2977 32.0788 5.75398 0.187982 -0.375881 -0.47973
1971 2 74.1911 32.0178 6.13675 -0.0672694 0.405526 0.275841
524 2 71.9916 32.3058 4.58539 0.638725 0.019708 0.426553
678 2 74.2157 34.765 6.54347 0.00890762 -0.2284 -0.0496289
603 2 72.8649 33.2914 7.1193 0.431415 0.105953 0.486415
599 2 71.4945 34.8446 7.04204 0.624275 0.277106 0.349612
2045 2 75.9705 33.2301 4.48789 0.0428832 -0.173736 -0.0446638
26519 2 76.0088 32.9406 6.5392 0.174628 0.158038 -0.575476
2046 2 80.5034 34.5018 7.19557 -0.315295 -0.686604 1.14085
1973 2 77.8386 32.2754 7.26163 0.246781 0.0242311 -0.382614
692 2 6.81442 37.4898 4.41737 0.688453 0.966729 -0.254902
26608 2 9.37171 37.8609 5.66386 0.529219 0.470181 0.164601
2057 2 12.1383 37.4235 6.9455 -1.49998 0.0725145 -0.141618
620 2 14.2047 37.3206 6.01608 -0.686207 0.231927 -0.253587
1990 1 15.6881 35.331 4.803 -0.396454 -0.275796 -0.313026
619 1 15.5094 36.074 6.26074 1.00696 -1.16005 0.699787
2062 1 16.9084 35.3764 6.91499 -0.740217 -0.405377 -0.0868558
631 2 24.0158 36.2107 5.76986 0.0397217 0.393305 -0.454306
2005 1 29.4165 36.0281 4.9277 -0.177576 -0.256104 -0.190518
26627 1 29.8831 36.4442 6.51328 1.96463 -0.680159 -0.48787
2233 1 31.3678 35.7559 6.05096 -1.02713 0.909083 0.465306
561 1 32.0471 35.4187 4.5265 0.14243 -0.682518 -0.524867
640 2 32.7514 36.8698 7.05627 0.727932 0.310109 0.119988
26557 2 36.2067 35.1666 4.53005 -0.352569 -0.955132 0.246683
639 2 36.0411 35.8366 7.26184 0.075392 1.07858 -0.0657254
25191 2 38.2216 35.4068 4.91557 0.463219 0.355172 -0.769813
566 2 40.2171 35.8193 5.18462 0.833163 2.57828 -0.473413
642 2 40.5052 37.8815 5.35177 1.36004 -1.28045 -1.40375
646 2 43.8588 37.5653 4.88819 -0.144201 -0.51093 1.01553
26639 2 45.2959 36.2483 5.57388 1.27071 1.30066 1.15305
655 1 52.6585 35.1393 4.66811 -0.219873 -3.59892 -3.65567
26567 1 50.4187 34.9763 6.688 0.643914 -0.631572 -0.501941
651 1 51.8963 35.7486 7.04164 1.48701 -1.28701 0.258043
2098 1 51.9381 36.4292 5.49749 -1.31569 0.302024 -0.836566
2094 1 50.3575 35.9208 5.28446 0.198781 0.114431 -0.343317
585 1 55.1626 35.4495 4.55841 -4.00476 -0.836559 -1.56167
2025 1 53.4174 35.0523 6.92931 1.82895 0.599466 -1.74508
653 1 53.1916 37.4262 6.04547 -1.09121 -0.305402 2.03265
2101 1 54.5881 36.7134 5.46922 5.05318 0.653504 -0.671714
584 1 54.8503 35.9929 6.97845 -0.00912023 -0.745259 1.02649
581 1 56.7039 34.9774 5.49494 -0.0815157 0.106679 -1.76208
588 1 56.3378 36.5044 4.99881 -0.646468 -2.61131 -0.0360258
583 1 56.5459 36.0433 6.74898 0.726547 -1.99101 2.0184
671 1 63.3928 37.5947 5.43924 0.509307 0.219847 -0.365706
673 1 63.7973 37.2063 6.97815 -0.525452 0.679351 -0.650084
596 1 65.108 37.6239 6.09113 0.284876 -0.160931 -0.650169
674 2 70.0132 36.1931 5.31186 -0.527405 -0.353808 -0.135791
598 2 70.5093 36.662 7.26483 -0.0730763 -0.563722 -0.161583
604 2 72.5951 35.1125 5.30326 0.0917257 0.631748 0.159128
684 2 76.4654 34.9602 6.68747 -0.585203 -0.0246413 -0.677606
26671 2 75.419 35.1817 4.95074 -0.263686 -0.31403 0.0534712
681 1 78.5391 35.2403 4.56579 -0.793026 -0.625896 0.213261
26676 2 78.4775 35.0109 7.18374 -0.632687 0.266107 -0.144246
26603 1 78.591 37.6742 6.77635 -0.499215 -0.0717127 -0.847093
26604 1 78.7604 36.2858 5.84638 0.161048 0.0149785 -0.693227
758 2 6.25403 39.4314 5.43148 -0.463217 -0.246275 1.37076
687 2 5.84757 40.953 6.73139 -0.366928 0.441337 -0.266525
26679 2 7.40019 37.9959 6.28768 0.877129 -0.36624 -0.147418
613 2 11.046 38.0931 4.49584 0.47592 0.419076 -0.151926
615 2 11.8436 39.2317 6.01271 -0.435342 -0.0719632 0.643308
618 2 13.7263 39.4014 5.20471 -0.546968 0.339498 0.458352
700 2 15.3431 40.5586 5.75295 -0.342157 0.689865 -0.326188
623 2 18.8485 40.2406 4.83977 0.0117156 0.643719 -0.0557065