ITEM: TIMESTEP
180000
ITEM: NUMBER OF ATOMS
27436
ITEM: BOX BOUNDS pp pp pp
4.3617923733457076e+00 8.0638207626657035e+01
4.3617923733457076e+00 8.0638207626657035e+01
4.3617923733457076e+00 8.0638207626657035e+01
ITEM: ATOMS id type x y z vx vy vz
4 1 5.34053 7.00433 5.28829 3.0441 -1.39379 -2.15415
25999 2 15.0763 5.039 6.37506 -0.218866 -0.614792 -0.511393
26003 2 16.0376 4.80677 4.56207 1.72956 0.0167948 0.684707
1454 2 16.5953 5.90298 7.43866 -0.881971 2.18949 0.721609
10 2 17.8853 4.9827 5.52503 -1.71199 1.64427 -0.00652723
91 2 19.762 7.26838 7.39783 3.1402 -4.91201 3.00347
19 2 20.7107 5.3394 7.54486 -1.0068 -3.94566 4.94987
2840 1 26.2551 6.11981 6.84015 4.18845 0.210027 -4.87956
1549 1 25.7525 7.10266 5.63254 1.41971 -0.53243 -4.49335
29 2 32.2848 6.21005 5.58493 0.0437136 -2.26102 -1.84957
1404 2 36.1956 5.55737 7.20188 2.67281 1.35724 0.372343
1481 1 37.4407 6.57955 6.19721 -0.446323 0.308782 3.15691
26028 1 38.1006 5.96711 4.78632 4.8903 -1.10365 1.64279
1412 2 45.2136 5.88576 5.64749 -0.637779 1.59323 0.0397832
1489 2 46.0147 7.06901 7.17002 -0.163272 -0.455577 0.840007
1410 2 46.9562 4.7577 5.78859 -2.05693 0.00377932 -0.401962
2850 2 43.8041 4.91897 6.79377 1.87917 2.78192 -0.0252209
1567 2 47.8806 6.49842 6.33085 -0.541066 1.1884 -1.69404
26036 2 49.1223 5.23308 5.32135 -0.973697 0.447607 -0.127515
27406 2 51.1068 4.7373 4.87411 -1.24031 0.348125 -1.30862
1420 1 54.0964 4.97687 7.17309 -0.142867 0.939751 -0.588919
27416 1 55.4477 5.89359 6.66669 1.78732 1.04246 -0.973783
26044 1 53.3585 6.52459 7.48115 -0.451372 -3.09089 3.52889
53 1 57.4357 7.17893 5.88968 -0.43316 -0.539016 -3.15014
55 2 59.053 5.09976 6.15306 -0.148143 0.760333 0.408011
26047 1 57.1258 5.78615 6.76746 0.758893 -0.376982 0.353475
1422 2 61.2587 4.57453 6.19242 -1.07279 -1.07561 -0.984516
1423 2 60.2084 4.9037 4.469 0.32124 0.724807 -1.12044
60 2 62.6006 5.98993 6.86724 -2.12473 -0.687084 -1.70495
133 1 67.3469 5.94241 5.47849 0.462879 2.7986 6.04545
1430 1 66.479 5.13033 6.67162 -1.96597 -1.90287 7.88311
26055 1 68.0627 4.79951 7.07264 -1.0508 0.701876 1.90498
1426 1 68.6498 4.94196 5.4762 1.41392 1.08538 -0.916946
27420 1 68.772 6.73183 5.32089 0.145772 -1.92127 -1.27726
1436 1 69.6834 6.75068 6.72202 -1.1041 4.09738 2.51129
68 1 70.5951 7.1194 5.33788 1.40086 -3.53878 -2.463
67 2 72.9626 5.20463 6.53185 -0.122697 -0.223351 -0.0393872
1513 2 73.2818 6.31775 4.81446 0.449389 -0.934656 -0.344815
72 2 74.8991 4.44913 6.53925 0.000947829 -0.7437 -0.583325
65 2 75.0727 6.4278 5.86379 -1.21305 0.948168 1.23659
76 1 80.4801 5.80041 5.58527 2.83936 -3.16925 0.578683
1448 1 78.7709 5.04254 5.3711 -1.20894 -1.74271 1.35583
26068 1 79.861 7.06777 4.74282 2.01944 -0.769501 0.479711
73 1 79.9697 80.5847 6.23192 -1.45488 1.08693 4.07603
1521 1 6.35973 7.73716 6.42611 -0.757875 0.895762 0.276854
79 1 7.07263 8.68692 5.22204 0.397197 -0.294006 0.25193
227 1 7.7106 9.83295 6.29373 0.751084 0.274875 -0.206269
2969 1 10.0008 9.18167 7.3135 0.120001 -0.154262 1.09446
1525 1 9.35722 9.97416 5.94642 1.62398 1.62357 2.20757
26075 1 10.6571 9.80651 4.88258 0.491145 -0.219058 0.619964
87 1 12.8431 9.17191 6.38125 -0.0222857 2.29656 -1.1888
1527 1 11.5149 9.85205 7.16731 -0.496325 -1.44036 -0.105458
1533 2 15.2047 9.17287 6.88028 1.22982 0.213417 -1.58012
1457 1 14.2031 8.56289 5.6582 0.358094 -1.82454 -0.851696
26008 2 16.7469 7.81795 6.64735 -0.572114 -1.23585 -1.60609
96 2 18.6415 8.50807 6.02333 -3.31544 2.23259 -1.6569
1620 2 18.641 10.0116 7.48639 0.600077 -1.45409 2.87303
1468 2 20.5063 9.20852 5.32623 0.148468 -3.00245 0.364908
1539 2 20.6041 10.4202 7.0298 -1.63147 1.42033 0.414305
26091 1 25.1562 8.72783 5.15784 -1.91734 -0.0597317 0.0247088
22 1 24.4814 10.2376 5.27119 1.08882 1.28511 1.03236
2834 1 26.7323 7.70527 7.05203 0.753644 2.40361 0.0323613
99 1 27.1795 9.3272 7.3099 3.79692 1.25247 4.20167
1538 1 25.7272 9.59289 6.44018 -2.11997 -2.27835 4.17433
30 2 32.6319 8.17441 5.06612 -0.312219 1.42035 -0.699924
32 2 33.165 8.29514 7.06476 0.116816 -0.561357 -1.12816
1474 2 34.5067 9.80992 7.26531 1.32911 1.32129 -2.43889
1408 1 37.6374 8.33199 6.68336 0.00956092 3.05331 1.31947
26107 1 38.5905 7.57298 5.56872 0.16569 0.174235 4.89242
26108 1 38.2091 10.5709 5.06799 -1.99727 0.455305 -3.61796
1488 2 46.4396 8.9723 6.34776 0.833546 0.855505 0.442439
116 2 45.0853 10.1591 7.30672 2.15024 0.669299 0.305486
128 2 49.0572 8.13167 6.81189 1.41267 0.989582 -0.115433
26114 2 49.7794 10.025 6.90068 -0.762326 0.063117 0.717045
26115 2 51.193 8.59955 7.32352 -2.36365 0.878652 -1.49836
26195 2 53.2193 8.41877 7.31734 -0.299014 1.38273 3.31777
126 2 54.7504 9.20395 6.18513 1.20934 0.688698 0.787052
26048 1 58.3283 7.97025 7.04776 -1.6169 -0.450378 -1.61166
26045 1 56.2398 8.29864 6.22379 -0.00232001 0.847389 1.89339
1502 2 61.9937 7.61071 5.68842 2.28473 1.9739 1.47173
140 2 62.2967 9.64644 5.33316 0.15708 0.529615 -0.0352166
64 2 62.5814 10.1307 7.34532 1.18178 -0.680677 -0.1769
26060 1 70.5274 8.77088 5.52495 1.16948 -0.839012 0.727075
143 1 69.9527 9.24339 7.01569 0.463327 1.63071 -0.222582
71 2 74.0895 7.73249 7.16219 -1.54805 -3.10099 0.614145
69 2 76.2238 7.99831 5.10254 -0.885006 0.919644 -1.22878
145 2 75.4713 9.1905 6.59149 -0.134317 -0.693875 -0.366503
150 2 77.3223 10.1555 6.62145 -1.51111 0.721894 -1.45069
74 2 77.9431 8.19619 6.2612 1.20809 0.0932577 1.47242
77 2 78.9158 8.72074 4.48249 1.56616 2.0169 0.0958184
1666 2 77.9087 10.5179 4.66308 -0.860456 1.94708 0.39078
8 1 10.023 11.454 6.46582 1.87206 0.178412 -0.798037
83 1 10.7536 12.8633 7.04155 0.552359 -0.205969 -0.527162
1529 1 11.5254 10.9254 5.82715 -0.539292 -0.82384 0.0850263
1526 1 12.2578 12.2849 6.52766 -1.88758 1.02411 3.71793
26004 1 13.072 10.4679 5.29065 1.18177 0.704795 1.48813
26080 1 13.6891 12.0047 5.67246 -3.14052 3.54377 -0.796103
16 1 14.8145 12.0388 4.46031 3.597 -0.133849 -3.56055
24 1 22.7111 13.0951 5.30376 -1.70897 2.83026 -0.692387
95 1 24.4491 11.6938 6.03594 -0.226126 -0.0509493 -0.957237
26167 1 23.9382 13.2328 6.45874 1.24047 -1.0121 -1.73689
97 1 23.2671 11.5304 4.90219 0.149423 -0.727379 -1.12477
1626 2 30.6325 12.5278 7.07021 -0.416431 -0.734919 -1.04872
1625 2 31.9616 11.427 5.91372 -0.846083 0.597871 -0.0217391
1629 2 33.0471 10.5084 4.38805 -1.18123 0.410121 0.00587379
185 2 34.8321 10.5172 5.35652 -0.0564439 0.916167 -0.563425
259 2 35.4027 12.3269 6.1579 -0.519719 1.17841 -0.283825
189 1 37.5159 12.0061 4.49438 -0.1817 0.247928 4.19843
1631 1 37.8962 12.7266 5.97563 1.87831 -0.553165 -4.23909
187 1 38.7077 11.3282 6.47687 -0.585606 -2.20124 -0.50629
2998 2 43.1201 10.6162 6.77983 -1.02026 0.0557712 1.41277
1562 1 46.3103 11.6006 6.97635 -0.34312 0.332493 -0.0921283
48 2 47.7782 10.4563 6.60167 0.65921 1.80158 2.59933
195 1 47.078 12.7943 6.08758 0.266551 0.991121 0.974478
114 1 47.1151 12.1767 4.53509 -0.152179 0.835589 -0.187201
26191 2 51.9411 12.0475 5.23125 1.03427 3.39354 0.218495
197 2 51.0503 11.6425 7.09193 1.65045 -2.19354 -2.08306
26120 2 53.3967 10.6409 5.62346 -1.00941 0.779495 2.07941
26199 1 58.3068 13.0302 6.20322 2.42267 1.40169 1.59596
208 1 59.2086 11.9958 5.25709 1.58003 -2.02603 0.70361
1721 1 57.4555 13.3126 4.71475 -0.422959 2.61234 -1.38558
1654 1 60.3621 12.0725 6.46797 0.408066 -5.28169 -2.57648
136 2 61.4719 11.5407 5.06433 1.29521 -0.38123 1.82874
217 2 65.3293 11.0949 80.5596 -0.908037 0.545623 1.0907
26212 2 66.4742 11.7637 5.8345 -0.72207 -0.0615328 -3.16409
26132 2 66.3435 13.6076 4.98224 0.58356 0.123101 -0.482246
213 2 68.3209 13.5911 80.637 -2.62166 0.707634 0.949596
1662 2 69.3201 13.0963 7.11023 -0.570541 -0.176593 -1.5523
152 2 79.9598 12.6653 5.37668 -0.172342 0.0585491 0.0964981
160 1 9.16283 14.7273 7.20062 0.995488 0.2114 0.0966763
163 1 10.6591 14.4484 6.48457 -0.146201 -0.383343 -2.23699
1681 1 10.7278 16.0793 6.08581 -0.577418 0.220609 2.55113
235 2 12.4638 16.4535 7.06665 0.964825 -2.04697 4.37612
88 2 13.4663 14.6385 5.82838 1.5497 1.28504 -5.09888
1611 2 15.4761 14.2203 6.20058 -0.730328 -0.0510232 -0.0394703
92 1 15.4046 13.6755 4.4651 0.761612 -4.03338 1.98461
1613 1 22.0104 14.5609 5.87122 -0.710349 2.67507 0.491315
26239 1 21.3442 16.0099 6.5463 -2.81717 3.46247 -1.16355
174 1 20.3859 16.2131 4.91307 0.71558 -0.576777 -1.46661
1614 1 20.9062 14.6483 4.55124 -0.477957 0.851174 -0.830709
175 1 22.7873 14.1577 7.32131 1.93753 0.681238 0.278118
26096 1 24.7127 14.637 5.89277 0.0207168 -1.65126 -0.660503
26163 1 23.3729 15.3373 5.20405 0.0790224 -0.936861 -0.230992
26171 1 25.1104 15.8908 4.85835 0.569557 -0.667906 0.684977
1697 1 26.303 14.6465 6.49885 -0.223689 -0.377709 0.309969
181 1 26.2954 16.2619 5.97412 0.280463 -0.0467415 -0.145622
179 1 27.8733 14.5149 5.89014 -0.791109 0.610241 -0.145219
26176 1 27.6817 15.9509 5.11244 0.389236 -0.285859 0.0850992
183 1 28.8508 15.6995 6.47582 -0.0963443 -0.115685 0.755752
184 2 31.0409 14.0048 5.67333 0.0590159 -0.128339 -0.823616
3219 1 30.5592 15.8833 7.05394 -0.0778527 0.751429 -0.672102
1701 1 31.9101 14.9141 6.8376 0.0423699 -0.706725 0.761379
26180 1 36.5768 13.7438 5.66479 1.88145 0.0679315 0.235054
1630 1 37.4329 15.1446 5.99167 1.37217 1.15077 -1.23883
1636 1 38.6722 13.914 6.91508 -3.01587 -2.59659 -0.306985
1706 1 39.1754 15.4183 7.35719 -0.963007 -1.19654 -1.59921
264 1 38.3686 16.5153 6.33801 -0.538818 -0.53299 0.51897
26188 1 47.1736 13.7977 7.40718 -0.185257 -0.802401 1.42542
26187 2 49.2562 14.7584 4.41949 -0.708586 1.04258 -0.0738762
121 2 51.6753 14.0119 5.683 0.112733 -1.85352 3.48181
275 2 51.4124 16.0148 6.09298 -2.62151 -0.301195 0.15764
1642 2 53.2382 15.3723 6.77211 2.68381 2.44212 -0.707145
1651 1 57.1517 13.5935 7.31418 2.08891 -2.26272 2.92326
203 1 56.5915 14.6808 5.22507 0.688214 -1.95088 1.03986
207 1 57.2287 15.1468 6.66934 -4.3692 9.54459 -7.038
1733 2 63.9472 15.685 4.50641 0.859269 -1.47488 -0.383812
1661 2 65.7011 15.4872 5.61697 1.45874 0.705439 -1.63803
1737 2 67.6147 16.2186 5.21602 0.196972 -1.05351 0.958585
295 2 68.2986 14.5206 6.11969 -1.75709 -0.295223 0.180135
224 2 70.4552 15.5114 6.36517 0.877732 0.419075 -1.36615
218 2 70.2346 13.9352 5.01584 -1.06755 -0.983466 -1.5296
373 1 74.0061 15.6562 5.68195 2.51058 0.639738 1.22256
297 1 72.1455 15.6049 5.82608 2.12478 3.97655 7.55198
300 1 74.3458 14.236 4.85033 1.09012 0.505112 -0.050227
228 2 80.4568 13.9019 6.93247 0.21204 -0.66804 -1.28561
26147 2 79.5057 16.4466 5.91747 -0.458655 -1.323 0.473938
303 2 4.64835 17.1946 7.219 -0.347582 -0.496513 -1.13592
158 1 7.84177 18.3652 5.54116 0.895005 1.46674 0.469327
231 1 8.70732 17.2357 6.41174 -0.559499 -0.0478545 -0.613683
1746 1 9.98628 17.4241 5.31867 2.00008 -1.01505 0.684504
236 1 9.38853 18.9978 5.4277 0.673993 -0.894747 -0.905722
1753 1 7.52025 16.8368 7.51684 1.38623 -0.528072 0.744405
162 2 13.1895 16.7788 5.20784 0.804862 -4.66353 3.19246
240 2 13.055 18.4753 6.29831 0.768324 1.39654 -0.64193
26237 1 18.1899 18.823 5.00532 -3.41727 1.20129 3.21982
26168 1 21.9989 16.6133 5.09876 -0.370799 -0.36512 2.49939
397 1 19.8355 18.627 6.92071 -0.284117 -0.188042 -2.41419
252 1 20.6846 17.3227 7.49781 -2.77636 1.74371 -1.29258
331 2 27.6737 18.8973 4.52057 -0.150762 0.413848 -0.276649
255 1 29.3988 17.0328 7.27412 -1.10995 0.378396 0.131766
1777 1 31.0597 19.1323 6.78921 -0.411191 0.771692 0.114806
3142 1 31.6582 17.1273 7.29558 -0.747277 0.178512 0.0909852
1699 1 32.6068 18.516 7.15164 -0.789419 -0.0136941 2.0544
339 1 34.594 19.4203 6.34719 -0.853235 -0.0477274 -0.909885
335 1 37.1624 16.8282 7.46434 0.423413 -0.95677 1.64666
411 1 35.3651 18.5333 5.14023 0.403561 -0.748451 1.76011
1857 1 37.5253 17.4736 5.25417 -0.604621 0.0205174 1.54049
26327 1 36.307 17.7924 6.3683 0.370122 -0.645084 2.11959
194 2 45.8283 18.1706 4.59931 -0.289887 0.34337 1.57929
272 2 44.0251 19.2403 4.62075 -0.221182 4.57602 -2.09942
196 2 49.6079 16.602 5.28341 0.0862959 -1.05032 -0.0465976
1638 2 49.3988 17.808 6.9791 -0.269286 0.115483 -0.596813
26263 2 47.7407 17.3625 4.76997 1.95719 -0.466724 -0.0369895
356 2 50.4352 19.3281 6.02017 0.0243427 -1.51668 -0.535779
26272 2 54.6743 16.8595 6.21789 -3.69785 1.8021 -1.31142
1800 2 54.7802 18.8411 5.3728 -1.9377 -0.614126 2.58688
1797 2 54.7 19.4706 7.30663 -0.0401325 2.65884 2.00113
282 2 56.6871 17.3367 6.36555 -4.45241 -0.521048 -3.04754
357 2 58.3934 18.4549 6.39669 -2.10669 -2.00093 -1.32655
26357 2 60.0861 18.8963 5.27987 -3.63164 1.74651 -0.465889
367 1 65.5698 19.4632 5.39539 1.65045 1.24399 -2.54827
296 1 65.6656 18.35 6.6175 -0.147791 -0.0976248 0.176876
291 1 67.1817 19.3018 4.94443 -1.60238 -1.23056 0.701456
26287 2 69.6057 16.7391 4.91481 -2.15579 -0.531648 2.01956
1741 1 72.4247 16.5635 7.19103 -2.73956 -5.61209 -0.943875
26291 1 73.8546 17.0871 6.56664 3.79467 0.0992188 1.22238
299 1 73.8381 18.7076 7.11324 -1.04575 -1.61777 -0.653305
380 2 76.8501 19.3433 6.80733 -1.52953 -0.441729 1.06455
1748 2 78.1627 17.7835 6.72186 0.952991 1.84922 -3.79472
226 2 79.779 19.0021 7.29215 -0.241977 0.857676 2.15866
311 2 9.18474 21.7393 5.56411 -0.653543 0.646825 0.759687
26232 2 11.019 21.1068 6.25481 -0.259883 -0.379658 2.47102
237 2 12.7348 20.334 7.09767 0.103377 -0.0194304 -0.80256
238 2 14.2993 20.06 5.7787 -1.41521 0.563885 0.863726
26231 1 15.6724 20.905 4.92521 11.4216 2.72658 4.81535
26312 1 16.8708 19.7624 4.66218 2.2812 0.741211 -0.646281
26311 1 18.8427 19.7553 6.28398 0.19265 -3.09687 -0.717374
244 1 17.0166 21.9463 5.07472 3.09481 4.61025 -3.07515
1761 1 17.8434 21.3055 6.43367 -2.76345 2.63365 1.73724
251 2 27.1076 19.671 6.34419 0.38942 0.572525 -0.517297
26319 2 28.0748 21.4803 6.15263 -1.0921 0.570128 0.159142
26323 2 31.4893 20.0235 5.26794 -1.17004 -0.962432 0.812854
329 2 29.7493 21.1197 4.94618 -0.656054 0.728229 0.286438
333 2 33.1128 20.9975 4.47808 -1.27905 0.244232 0.963654
1778 2 35.9239 20.633 6.42566 0.0628641 -0.105116 -0.574872
1784 2 37.3198 20.0955 7.80496 0.0477028 -0.434322 0.98094
343 2 39.6916 21.5861 5.02371 1.32754 1.23032 -1.46081
1781 2 38.8721 20.9706 6.80582 -1.3852 0.256955 0.342483
268 2 42.2178 20.0515 5.23133 1.94623 1.35682 1.69194
1783 2 41.1361 21.3288 6.46479 0.199089 -2.17163 -1.7265
1785 2 43.7219 20.4419 6.59685 4.30085 -1.33001 2.72146
26419 2 51.5169 20.8262 5.1538 -1.82316 -0.458143 -1.03655
1794 2 52.3832 21.1558 6.99448 -0.254504 0.6806 0.603045
353 2 53.1876 19.9356 4.36516 -0.481228 -1.24472 -1.45816
26266 1 56.6988 22.1045 4.47042 -1.1943 -0.0221131 1.5025
1729 2 59.9175 19.7362 7.13243 -0.877701 -6.84826 1.13426
368 1 63.9475 21.4137 7.06393 -0.393381 1.95803 1.46494
365 1 63.7827 21.6995 5.41568 -0.109563 -1.55566 -0.588622
1809 1 65.3579 21.1374 5.39446 -0.393193 -1.3443 1.99331
1734 1 66.1541 19.84 7.11337 1.05279 -0.120143 0.997435
363 1 65.6506 21.4486 7.05463 -0.28763 -0.832209 -0.163735
26360 1 67.3135 21.8008 7.2344 -0.969803 -1.18923 1.60626
1813 1 67.3702 20.4994 6.12762 0.223731 2.81226 0.128179
362 1 66.9299 21.6489 4.9734 0.888148 -2.10038 1.75915
371 2 69.7086 22.472 4.87356 2.37546 1.68694 0.119754
1817 2 73.2796 19.8065 5.94797 -0.63805 -3.9983 1.31105
447 2 72.2152 21.0179 4.65099 -1.51316 4.70334 -3.45444
1893 2 74.7519 19.8956 4.51443 -0.890486 -5.33388 -1.3026
1818 2 75.3838 20.7 6.36098 1.6389 0.707781 3.6361
1821 2 75.2894 22.7537 6.21165 0.317207 -2.92362 -2.90289
1897 1 77.6311 22.3095 6.84284 -2.44794 0.239711 -2.61794
1899 2 78.4775 20.6442 7.12443 -1.5809 1.71145 -2.51687
26307 2 8.40548 23.3706 4.6128 -0.944991 0.621856 0.16537
389 2 9.80884 24.8736 4.56223 0.506179 -0.381927 0.334288
313 2 11.9308 22.9479 6.04868 0.215661 0.733773 -0.566513
465 2 13.0195 24.6975 5.77039 -1.56402 -0.575443 0.0630989
26399 2 23.8379 23.7516 6.50951 -0.195069 0.232077 0.0543914
477 2 23.9222 25.5795 5.54469 0.394765 -0.067073 -0.716167
26393 2 25.9004 25.2791 5.00084 -0.950146 -0.865642 0.110651
256 2 26.4259 22.7239 6.44423 -0.517358 -0.143984 -0.84064
406 2 27.5348 24.3283 5.75544 -0.675728 0.33097 0.288374
327 2 28.8993 23.2425 6.88 1.27069 0.304949 -0.559512
24951 2 30.4552 22.9351 5.56743 0.805778 -0.347135 -1.3349
1849 2 35.7238 23.4774 5.49626 0.481384 2.39155 -0.041869
408 2 35.9112 25.272 6.50873 2.0628 -3.15732 3.58699
340 2 37.7376 25.1577 5.58795 0.751381 1.68485 2.6101
26407 2 39.7768 23.58 4.63038 2.92811 -1.61378 -2.9728
338 2 39.3904 24.3938 6.50496 -1.66112 -3.76249 -0.719758
26340 1 46.4802 24.7799 7.42788 -2.04452 1.49399 1.66351
26338 1 44.8263 25.0104 7.5574 -0.421944 -1.60144 3.50392
26411 1 48.274 24.3531 5.72837 -1.25682 -2.57544 -0.466873
427 1 49.6132 23.3893 6.08918 -1.51137 1.16384 1.587
26260 1 47.8525 23.8371 7.28723 1.09764 -0.0801171 -0.351137
1870 1 49.8119 24.7868 7.00552 0.267513 1.30554 -0.995924
421 1 47.4275 25.6719 6.30451 -0.0884939 -2.17417 -0.12668
1871 1 51.2974 23.3993 6.11311 -0.789313 0.355394 -2.63225
1873 1 52.8826 22.9934 6.52423 -3.0449 0.101042 -1.25077
431 1 52.924 24.6846 6.50807 -2.06052 0.526341 -0.508026
428 1 51.6256 24.9224 5.44933 -0.814617 0.396818 1.70571
3317 1 51.4513 24.588 7.33241 -0.364911 0.709729 1.65626
1798 1 53.8497 22.9182 5.16575 1.34613 -1.44027 0.690345
26271 1 54.3488 24.4708 5.59804 1.16448 -0.795026 -0.267245
26423 1 55.5534 24.2312 6.75199 0.336511 -0.904365 -0.836883
26499 1 55.5925 24.2652 4.489 -1.09142 -1.1829 1.78767
26276 1 56.3041 23.2527 5.62707 1.39055 0.976386 0.489131
26356 1 62.115 25.1454 5.55642 -0.292455 1.1808 -0.377377
511 1 59.8006 24.9759 5.43714 0.0465946 -0.690922 -1.906
26280 1 61.3801 23.9041 4.69004 -0.768491 0.137715 -0.27693
26504 1 59.9535 25.8825 6.83945 -0.203632 1.1678 1.44601
439 1 63.123 24.0014 6.27477 -0.287601 0.586148 -1.23242
26351 1 62.6524 22.8937 5.11228 -1.18186 1.63091 -0.330008
1883 1 63.6592 25.2357 7.24527 -2.20862 -0.544756 0.823278
26359 1 67.3969 22.92 5.98104 0.694466 -0.368651 2.63041
443 1 67.8678 24.2274 7.21044 -0.283013 -1.07343 2.3903
26435 1 68.8204 25.6372 7.14318 1.86799 -0.729043 -2.15756
1814 1 68.9341 23.5632 6.11514 -0.510596 -2.63008 1.70021
372 1 70.0905 24.6035 6.72012 -2.62296 -3.38826 -2.10691
26521 2 74.1869 24.4265 5.96307 2.69909 0.0619641 3.81064
26444 2 71.663 23.0317 4.48147 1.251 -3.41687 -0.605408
384 1 76.756 23.4247 6.03818 6.13168 -0.930499 0.906517
26447 1 79.9587 22.6938 4.35819 1.16563 -1.61403 -1.79833
381 1 78.2173 24.1933 5.86114 3.16345 3.44566 -1.12911
26443 1 78.7029 23.7413 80.5932 -0.0378275 -0.531702 -0.87285
26456 1 7.69276 27.5615 6.98041 1.84068 0.728165 0.339198
1909 1 9.53206 26.0116 6.80739 0.406962 -0.556094 -0.344072
1832 1 7.85249 25.9058 6.89052 0.97386 -1.64258 0.615849
307 2 11.2355 25.633 6.22083 -0.258191 -0.963131 0.936751
1768 2 14.5291 26.0519 5.33053 0.389789 0.350707 0.674879
1837 2 15.326 27.8568 5.90321 1.99032 -0.215043 -2.02791
395 2 17.2794 27.2548 6.10718 0.0903445 0.693573 -1.28289
399 2 19.2892 27.4188 6.62868 -1.1234 1.89182 0.194208
394 2 17.9489 26.3489 4.38222 -2.42471 2.55984 0.756884
26390 2 21.9157 25.7838 5.10098 -0.166995 0.853253 0.552602
475 2 21.298 27.4159 6.18237 -0.0635257 -1.15911 -1.53465
1921 2 19.6391 27.5333 4.61903 -0.472348 1.03442 1.78654
26397 2 26.2928 25.8145 6.90538 -0.782933 0.501772 0.2261
26475 1 30.4819 27.4933 4.45773 -1.49517 9.08652 -3.62302
1854 2 36.4271 26.3837 4.63402 -0.579275 3.57872 -5.01619
26406 1 38.0595 28.3214 4.4097 28.7672 -23.488 1.60068
26563 1 40.0552 28.6986 5.72557 16.2859 11.5423 -11.3822
491 1 39.5708 28.0811 80.4153 -11.3155 9.43696 1.33819
26413 1 43.3985 25.7379 7.0577 7.44142 -1.49725 -3.16957
26336 1 44.8447 26.5028 6.73899 4.47175 3.28594 -0.576453
418 1 46.4722 26.9844 6.59057 4.11798 1.57878 -2.18534
26487 2 45.9154 28.3153 7.15843 0.349282 -0.502919 5.41003
345 1 48.732 26.448 5.48834 3.32506 -2.01083 0.200931
426 1 48.8903 27.9619 6.19285 -0.109061 0.639893 3.15714
26495 1 50.3267 25.9601 5.92193 -0.0731605 -0.622549 -0.513044
1947 1 50.4193 26.9727 7.31766 3.5886 1.31778 -0.107312
436 2 55.0081 28.2643 4.97026 -0.57757 -0.0922977 0.113526
508 2 56.8452 27.3423 5.2177 -0.0751264 -0.0120948 -1.153
1950 2 57.763 27.1547 7.02696 -0.0987305 -1.12541 -0.888728
1878 1 60.9069 26.1021 4.84417 -0.214754 0.428108 -0.405543
1802 1 61.0366 27.0112 6.25126 0.394624 0.557312 0.908796
1881 1 62.4968 26.3215 6.72297 0.53764 0.394333 -1.35603
1962 1 67.7339 27.6148 5.69267 -1.21894 0.841273 0.413582
26583 1 66.9946 28.4107 7.02031 -3.71847 -1.49079 0.614439
597 1 66.4488 28.0863 4.68026 -0.305413 0.372798 -1.03941
595 1 68.6825 28.694 4.77506 0.273583 0.364216 0.108211
515 1 69.1119 27.2459 6.64202 -1.69272 0.477995 1.17852
514 1 69.6865 28.757 6.11334 2.74607 -0.866212 0.523333
456 2 73.9614 26.476 6.31391 -1.04747 -3.94499 0.497596
1894 2 73.3252 28.5509 6.8768 -0.977418 -0.907721 -0.0916294
26452 2 5.01915 31.3212 4.9923 -0.694006 0.79016 0.767222
459 2 6.5961 31.3419 6.36506 -0.14616 -0.0199522 0.193044
1914 1 15.9317 30.7936 5.78584 -0.317542 -0.160741 -0.162377
473 1 15.5333 30.1963 7.30914 0.290516 0.687382 -0.122057
26463 1 17.4885 31.1173 6.29646 -0.143547 -0.848302 0.128494
470 2 18.8315 31.1755 5.09627 -0.805397 -2.84154 0.902641
549 2 21.0782 28.9593 4.85441 1.12626 0.204358 -0.580797
1930 1 31.1982 28.7028 5.39905 1.9524 8.46959 -9.37378
1929 1 31.4542 29.3903 6.93831 7.50189 4.14286 -2.0845
483 1 31.8446 31.0322 6.58409 -3.7851 2.20351 -3.49381
412 1 31.8795 29.947 4.42683 -10.1136 12.0876 -2.38739
1933 1 32.9389 30.9572 5.25878 -4.62132 -0.536284 1.54588
26479 1 31.6227 32.1153 4.98945 5.57932 7.25059 -10.4817
1940 2 38.0958 31.5062 80.5876 -2.3487 -26.3467 8.44784
26632 1 38.5587 29.4917 5.41266 19.6416 -2.03399 3.77189
1934 1 39.4799 30.5653 4.49861 -6.46935 6.03725 5.78583
416 1 40.9628 29.9183 5.0994 -3.32019 12.5357 -19.1272
414 1 41.4727 31.4383 4.71581 10.9129 0.0255114 0.159599
424 2 43.5638 29.9638 7.3482 0.193316 1.90535 0.57081
1945 2 44.3733 28.8769 5.82733 0.116372 3.16805 -9.46889
25043 2 45.197 30.2511 4.59589 0.220733 6.60242 -1.75233
498 1 48.8287 30.5913 4.95845 -3.04212 1.74613 2.76683
26490 1 49.0888 29.6119 6.27909 8.84553 2.3848 0.566374
497 1 49.7831 30.862 7.19886 -3.81151 -0.361082 -0.98922
26491 1 48.8267 31.799 6.16397 1.73348 -2.02542 -0.973444
26571 1 52.6393 30.4737 6.4315 2.38722 -0.0759077 -0.149381
26496 1 51.8828 31.7488 7.19764 2.26357 0.683281 0.051859
1946 2 53.392 29.3666 5.48567 -1.24003 -0.640607 -0.577287
578 1 53.8005 31.6336 6.13395 -0.828701 1.72479 -0.262741
587 2 61.5314 31.8141 4.54475 0.97425 0.193706 -1.40184
1958 2 65.6974 30.7881 7.01469 0.351498 -0.402002 -1.56775
520 1 66.2064 29.3208 5.83812 2.36751 2.17464 -1.77831
26515 1 67.6395 30.2051 5.67291 1.86662 3.63686 -1.40128
522 1 68.362 29.3651 6.96622 -3.02296 -2.3294 1.28696
525 1 70.4303 30.1746 5.59511 -0.534664 0.425549 -2.40692
518 1 69.0992 30.3076 4.58272 0.964174 1.06703 -1.07381
601 2 71.857 29.8817 6.31863 -2.65815 0.402203 0.332092
1965 2 73.337 30.7059 5.14207 -1.54801 1.41501 0.524309
526 2 74.5168 29.0291 5.26787 1.19715 1.58109 0.8459
26527 2 6.45427 33.3477 5.86735 -0.10591 0.284335 0.110457
2049 2 4.41495 33.0042 6.06664 -0.550865 0.596121 0.0929407
536 2 6.31028 34.7825 7.34495 -0.0376885 0.222194 -0.0766879
534 2 8.51162 33.4207 5.7951 -0.182578 0.316785 0.28578
1981 2 8.30477 32.044 7.35309 0.11973 0.127667 -0.12841
541 1 10.5524 31.8269 4.88936 0.347998 -0.148932 -0.747133
538 1 12.1969 31.914 4.99428 -0.254148 -0.312348 -1.01553
26532 1 10.4452 33.3953 5.44078 -0.490708 -0.782674 -0.457815
26531 1 12.0791 33.3469 5.85367 -0.0714422 -0.437796 -0.360969
539 1 13.3341 33.8821 4.87841 -0.121383 -0.713914 -0.431627
466 1 15.0474 32.1726 6.19592 -0.299753 -0.0203606 -0.145921
468 1 16.2439 33.3811 6.11755 -0.191715 -0.294784 0.262971
9668 1 13.8881 33.413 6.40472 -0.550727 -0.219762 0.0374151
543 1 15.112 34.6119 6.45016 0.746898 -0.969205 0.0293063
542 1 17.2861 34.6717 5.75625 -0.373987 0.687758 0.669991
471 2 20.5257 32.1412 5.70325 0.868493 -1.8922 -1.88879
476 2 20.6257 33.0405 7.5413 -1.94347 -1.2159 -1.81329
26543 2 22.5157 32.594 5.32263 2.91007 0.589308 -1.76777
551 2 22.6005 33.3013 7.26145 -0.797221 -3.0641 -0.449076
556 2 24.6368 33.2882 7.0757 1.54918 1.52849 4.00995
554 2 24.612 32.2691 5.25555 -2.10944 -3.46606 0.504326
484 2 28.1829 32.2041 6.79846 1.07929 -0.188378 0.0337902
559 2 26.5719 31.7799 5.71492 -0.318352 0.202308 2.18639
26480 1 30.7111 33.3282 5.57745 -4.38344 3.54514 -6.28185
1926 1 30.0374 32.5571 6.97485 1.50807 1.46551 -2.47432
26631 1 29.9398 34.8096 5.5643 -2.21345 -5.77157 1.3864
486 2 34.9425 32.2417 5.50531 7.49225 3.77452 -9.34525
2006 2 35.8586 33.9578 5.89964 4.5674 1.35122 -3.38151
26559 2 37.8324 33.4488 5.4151 1.86427 3.38389 0.830855
2013 2 40.4861 34.666 6.19359 3.05174 1.63156 -3.72464
1941 2 43.2794 31.9902 7.08541 -1.19259 2.40801 -2.81186
1939 2 42.3358 33.6489 6.17824 -2.43306 -1.15723 -0.787089
26488 1 42.4133 33.508 80.5228 -1.24045 -7.55358 -8.67771
570 2 44.8207 34.5308 5.67868 1.32011 0.803806 2.58923
26645 1 45.5637 33.9339 80.5236 -1.1292 5.57373 10.3643
573 1 47.9599 32.9067 5.27806 4.06281 -2.02969 -0.379673
26568 1 49.3729 33.8148 5.14625 -0.746907 -0.151935 -0.581043
499 1 49.8999 33.0343 6.53673 -3.09613 -0.0825386 3.31365
2022 1 52.7001 32.9445 6.29645 -1.30224 -0.640679 -0.990367
26567 1 51.3281 33.9795 6.57926 -1.30411 1.73681 0.928994
2094 1 50.9264 34.4563 5.00129 1.23231 -2.55371 0.990492
655 1 53.4219 33.5797 4.8804 -0.618762 -0.760616 -1.35085
660 1 54.7936 32.5571 5.1147 1.57051 -1.85546 -0.96754
2025 1 53.7178 34.2193 6.92234 -0.429622 -0.894248 -0.765238
26580 1 56.1042 32.6214 6.19348 -0.471786 0.105897 0.443974
577 1 54.9877 33.1694 7.32695 -1.02208 0.464019 -1.36979
581 1 57.2819 32.6047 7.36166 1.49957 2.63938 -0.787823
588 1 56.8581 34.1394 6.91446 -0.552734 -0.653341 -0.64466
2037 2 59.9847 34.0796 5.61151 -0.464548 0.453534 -0.741117
592 2 61.899 33.3929 5.84032 3.29319 -1.85377 1.00176
26584 2 64.3969 31.6605 5.72736 -0.663351 0.903511 -1.15554
1957 2 63.0838 32.3212 7.16486 -0.5932 0.162803 -0.472253
26591 2 70.6678 31.9212 5.78623 0.804261 1.31261 -0.402492
600 2 70.1928 33.9767 5.78656 -0.351721 0.145983 0.54461
1971 2 74.4198 32.0913 6.26067 0.201778 1.23216 -0.428458
524 2 72.2986 32.3886 4.58791 0.459456 0.16688 -0.539424
603 2 72.9966 33.2847 7.23407 0.0556874 -1.76337 -0.864607
528 2 74.1922 33.2174 4.51562 -1.57413 0.718484 0.636228
678 2 74.252 34.8372 6.68991 -0.424725 0.942718 -1.17865
599 2 71.5404 34.7765 7.15672 0.390498 -0.772333 -0.9024
684 2 76.484 34.3788 6.61811 -1.03964 0.763439 -1.63002
2045 2 76.2322 33.5329 4.51424 -0.813382 -0.113513 -0.727163
2046 2 80.4935 34.7423 7.21544 -0.798482 0.290144 0.251552
535 2 8.3778 35.0313 7.09428 -0.333358 0.274496 0.228751
2057 2 11.9953 37.7583 7.072 -0.235512 -0.120721 -0.228744
544 1 14.555 35.0158 4.93882 -0.386053 -0.125542 1.24648
620 2 14.683 37.5823 6.22235 0.604239 0.236025 -0.676122
1990 1 16.0448 35.6653 5.20579 -1.11064 -0.108572 0.330464
619 1 15.9274 36.4374 6.66128 -0.150458 -0.894513 0.153661
2062 1 17.1144 35.4299 7.25575 0.14249 -0.612108 0.518062
2069 2 21.9213 37.6905 4.64907 2.00522 1.26119 0.122123
631 2 24.1413 35.6022 5.4619 1.20803 -2.13416 -1.8857
26552 1 29.302 34.703 7.08741 1.97637 -0.261984 1.25662
2005 1 29.203 36.0999 4.87249 -2.6472 4.96068 2.03518
26627 1 29.4706 36.4405 6.53154 0.432292 0.776304 -6.78844
2233 1 31.0741 35.8606 6.25167 -6.27116 7.9084 12.995
561 1 31.5736 35.6765 4.64591 1.94957 21.1081 9.85021
640 2 32.7101 37.2134 7.0449 0.819513 -1.91733 5.24352
26557 2 35.799 34.7483 80.2507 -5.14029 2.07697 -6.00035
639 2 36.1246 35.7211 7.0305 -1.9821 2.55573 0.216036
25191 2 37.7894 35.096 80.5958 -1.37977 -4.52754 -2.79949
566 2 39.5844 35.8334 4.69829 8.07618 5.57151 4.36107
571 2 42.9404 35.6095 6.31617 0.321908 -1.30182 0.77609
26639 2 44.0331 36.1345 4.70563 -0.876307 0.365858 2.38893
651 1 52.3901 35.2777 6.76455 1.57667 2.86615 0.159869
2098 1 52.5189 35.0175 5.08593 -1.11071 1.18382 -1.86294
2101 1 55.4353 34.7556 4.85744 -0.1827 -0.0949386 -0.821149
653 1 54.0876 35.3304 5.62123 1.0802 -0.169022 -1.39247
656 1 53.625 36.435 6.81318 -1.59686 0.470502 0.389992
583 1 55.7985 35.3329 6.39663 0.350873 -1.38204 1.90951
674 2 69.9734 36.0176 5.39207 0.171707 -2.53991 -0.990177
598 2 70.4644 36.5146 7.36619 -0.227073 -3.00901 2.13516
604 2 72.6563 35.2079 5.44744 -0.508744 0.619897 -0.857326
26671 2 75.4541 35.3127 5.11819 -0.819849 0.0492638 -1.69966
26676 2 78.4221 34.9297 7.15799 -0.770309 0.153261 -1.14121
26603 1 78.0555 37.489 6.65626 0.291527 -1.2925 1.18685
26604 1 78.5441 36.1752 5.73919 0.906897 -0.494699 -0.980348
681 1 79.0839 34.9123 4.76368 -0.3419 -0.961149 0.062239
609 1 78.7535 37.1702 4.40061 1.01662 0.338389 -0.308026
758 2 6.57644 40.3035 5.70165 0.870081 0.320567 -2.13788
26679 2 7.43573 38.5784 6.23036 -0.516533 -0.253446 -1.64851
26608 2 9.3521 38.3658 5.55353 0.103371 -0.0839474 -0.306104
613 2 11.2972 38.1424 4.9575 0.43454 0.783238 -0.201594
615 2 11.884 39.6105 6.23998 -0.0468116 0.182606 0.475211
618 2 13.7781 39.5017 5.44655 -0.11794 -0.0995448 0.640153
700 2 15.4868 40.5785 5.83149 -0.889944 1.23675 -0.382191
623 2 18.5846 39.925 5.07326 0.555561 -0.214256 0.75714
26695 2 20.0468 38.4803 4.98241 0.0143576 0.463231 1.44565
2074 2 26.2886 40.4991 80.0742 -2.25378 2.1838 -1.87706
636 2 30.4046 40.6254 6.615 -2.23709 0.140641 0.555605
26703 2 29.5712 40.8263 79.7464 -1.04622 0.629763 0.903303
634 2 31.6468 38.9977 6.85933 -0.83923 -0.669608 -2.11666
645 1 38.3545 40.5495 6.19726 0.71177 -1.33989 0.375684
642 2 40.5392 37.6999 5.12159 -3.73642 -1.66948 -0.323579
26640 2 39.5104 39.4581 5.26996 -0.96957 -4.53016 0.55864
2090 2 41.558 39.1259 6.21495 -3.49931 -4.84318 -4.97438
646 2 43.3329 37.9768 80.4893 1.63991 1.32809 0.818344
648 2 43.0487 39.8836 5.01046 -0.346743 0.15152 0.256882
649 2 45.1446 38.0504 5.10741 -0.873712 0.498629 1.81359
647 2 44.5217 39.2703 6.68854 1.58176 1.27613 -1.5255
650 2 46.9143 38.2421 6.0881 -1.94669 0.877436 0.389285
807 2 49.5649 39.3951 4.92251 -1.50896 3.80158 0.259434
727 2 47.6639 39.0016 80.5804 -1.00515 0.151169 0.977997
26727 2 52.3877 40.9174 4.55765 2.72905 5.6707 0.4883
667 1 62.1606 38.1855 5.63521 1.4444 1.3309 -1.20027
26735 1 61.0197 38.6318 4.50761 1.76292 -2.30877 -1.27518