ITEM: TIMESTEP
200000
ITEM: NUMBER OF ATOMS
27436
ITEM: BOX BOUNDS pp pp pp
4.3581534041774077e+00 8.0641846595826294e+01
4.3581534041774077e+00 8.0641846595826294e+01
4.3581534041774077e+00 8.0641846595826294e+01
ITEM: ATOMS id type x y z vx vy vz
25995 2 7.40086 80.2606 5.05635 0.495587 2.04494 0.745569
1454 2 16.2553 6.13146 5.87959 -0.21275 0.635402 0.0945594
25999 2 14.7987 4.69723 5.72265 2.73221 -1.78199 -2.12965
10 2 17.266 4.6536 4.85353 -2.22964 -0.0827652 -0.362014
96 2 18.7811 6.90117 5.61579 -1.01638 -1.98698 -1.90696
1468 2 20.8279 7.33274 4.69671 0.862963 -0.448868 0.27841
19 2 19.57 80.6239 7.07215 -0.206754 0.476788 -0.698727
1549 1 25.1223 7.29404 6.81826 2.6234 0.113275 0.0764718
2834 1 26.5953 6.77756 6.17062 -3.1498 -5.27033 -3.02956
1476 1 26.7032 5.87583 7.60672 -1.48243 -0.199283 2.1559
1404 2 34.935 6.42094 5.83675 -1.32489 -0.246304 1.5013
29 2 33.394 5.62794 4.74697 -0.233022 -3.28367 -0.694953
2849 2 36.5402 5.0756 5.95757 -2.92531 -0.151736 0.787311
26028 1 37.4324 5.4281 80.4962 -0.75255 1.74869 -1.96151
1481 1 39.2674 6.88326 5.61883 5.3628 0.00517584 1.82217
1482 1 40.5933 6.23893 4.84039 -0.624495 -0.825754 4.15189
115 1 43.4478 5.03811 4.93428 1.3271 1.32718 -2.64206
1412 2 45.1102 4.6433 5.69962 1.16215 -1.19935 -1.33346
1489 2 45.6976 6.29957 6.84992 -0.882112 -0.100163 -3.19713
1567 2 47.7667 6.08936 6.58935 -2.69977 0.422187 0.186066
26036 2 48.9355 4.75972 5.60225 -0.825103 0.67001 0.450398
128 2 49.4572 7.24565 6.66454 -0.396664 -2.01685 1.32272
27406 2 50.9568 4.76212 5.1011 -0.651987 0.899321 -0.635247
27416 1 55.8906 6.08833 6.87883 -0.493227 0.819437 1.6645
1419 1 54.0029 4.60123 5.85824 -0.0238964 -1.09961 0.698735
1420 1 54.4967 5.15095 7.38451 0.874302 1.75229 -0.319434
53 1 57.1527 7.13885 6.458 -0.744477 -0.529929 -0.709766
55 2 58.837 5.17926 5.84005 0.780907 -2.22539 -0.133309
26047 1 57.3919 5.48724 7.40813 0.00164238 0.516041 1.17776
1423 2 60.4068 5.1093 4.53175 0.738181 -0.156677 0.159023
1422 2 62.29 5.55098 5.31554 0.67506 1.32155 -0.362868
60 2 62.9586 6.41611 7.0888 -2.30493 -0.0292141 -0.264788
26127 2 62.7806 7.38014 4.39932 1.22485 1.18586 -0.443548
133 1 67.5717 5.33251 5.74088 -0.636281 0.523201 -0.7153
1430 1 66.9499 5.03606 7.28153 0.112466 -0.463703 -0.0647593
27420 1 68.229 6.82569 6.04932 1.04875 2.10191 -0.392831
1426 1 69.0684 4.6348 6.00853 0.0407278 0.841951 1.16623
67 2 73.3702 5.42304 6.04623 3.29222 5.17534 -5.74148
1513 2 74.2793 6.5195 4.55801 -5.41032 -2.53893 1.31829
65 2 75.5653 6.83245 6.15965 -2.09273 -1.26035 -1.24507
72 2 75.1785 4.97938 6.91864 0.0962754 1.28045 1.30425
75 1 78.6209 5.27945 4.60016 -1.08636 3.67111 2.96386
4 1 5.46269 7.48303 4.77652 3.63224 -0.532729 -0.356023
1521 1 6.33157 8.51536 5.73538 0.89242 0.304638 -2.93385
227 1 7.1843 9.96513 5.75988 1.83641 -1.48185 -0.97261
1522 1 6.48325 8.54406 7.45713 1.31419 0.0271577 -0.804293
1597 1 6.61228 10.2219 7.33342 -0.496034 -0.3986 -0.121981
2969 1 9.60072 9.3405 6.9407 2.12205 0.619725 0.340552
26075 1 10.0802 9.9587 4.51858 -1.43234 -0.0525979 0.450208
1525 1 8.88347 10.2461 5.68373 1.69762 -3.17041 -0.701188
87 1 12.5068 9.22775 5.99455 -1.64474 -0.108084 -0.586052
1527 1 11.141 9.92933 6.72431 -0.64708 0.966352 0.926742
26004 1 12.7228 10.3727 4.77142 -1.42537 -1.87381 1.08858
1457 1 13.8393 8.42328 5.40497 0.735137 -1.09382 -1.3351
1533 2 15.2797 9.07735 6.05679 0.241155 -1.1855 0.653125
26008 2 17.0448 8.01954 5.85749 -0.946529 -1.49239 0.726772
26088 2 20.0354 8.31063 6.32006 1.11864 -0.344826 1.54065
1617 2 20.7701 10.0549 7.16104 0.428543 0.212909 0.65221
1538 1 24.7936 9.33035 7.40099 -0.84439 -1.72701 -1.19256
26091 1 24.7613 8.65022 5.87086 0.0965918 -2.11913 2.1197
2840 1 27.2568 8.29025 6.45403 -2.87132 -3.09552 4.02515
104 1 26.2204 8.28211 5.12466 1.28359 0.863122 0.422343
1547 1 28.435 7.87035 7.58561 3.77832 -2.50336 2.01979
1474 2 33.8655 9.39107 6.24389 3.49656 -2.68476 2.27825
26104 2 33.7966 7.84342 4.94562 1.89861 0.800191 0.928609
107 2 35.8045 10.0088 6.65049 0.487799 1.4985 -4.67712
26108 1 38.0693 10.0825 4.54038 2.37348 3.40343 0.556433
36 1 37.6727 9.95084 7.16226 5.07795 12.4739 -5.80289
26107 1 38.7651 7.83336 6.91671 -2.20367 -2.94714 2.64706
1408 1 38.3448 9.08909 5.89384 -4.69416 0.775619 8.84483
2998 2 43.8124 9.74981 5.69352 -0.91045 5.51913 -2.9449
116 2 45.5741 10.396 6.54864 0.547253 6.35794 -6.09605
26114 2 49.5383 9.95702 7.35764 4.36873 -1.55658 0.683735
26115 2 51.0273 8.48223 7.0175 1.30058 -4.58988 0.00331849
26195 2 53.2315 8.34281 6.92668 -0.844585 -0.261873 1.86647
122 2 52.1887 10.0527 7.26157 -7.45712 -0.994039 9.14342
126 2 54.868 9.60188 6.51532 3.07715 -6.49901 -3.04427
26045 1 56.0832 8.43455 6.51384 0.661125 -1.6351 -1.17858
26048 1 58.3606 7.93045 7.33895 1.50073 -0.587526 -0.498065
1502 2 62.3088 8.18293 6.23219 -0.0528572 0.566757 -0.573744
140 2 62.7198 10.0967 5.5507 -2.32545 1.86406 -0.962879
68 1 69.0658 8.2388 6.38827 -1.006 -1.10375 3.68921
26060 1 69.8925 8.72461 5.06157 -6.03544 3.06897 3.27622
71 2 74.1767 8.13196 6.98482 0.85542 0.453196 -0.407844
69 2 76.2251 8.45165 5.12458 -0.970689 -2.4277 0.698256
145 2 75.3495 9.75717 6.45738 -0.00858141 -0.337148 -1.19812
150 2 77.3102 10.4346 6.50737 -1.04652 0.976015 -0.395987
74 2 77.9264 8.46559 6.32073 0.73109 1.76401 1.41699
77 2 78.6294 8.79223 4.41291 -1.07355 0.510885 -0.320152
8 1 9.80116 11.6165 6.04803 -0.38179 -0.195538 -1.61934
83 1 10.783 12.8722 6.59287 -1.84542 1.07703 0.754221
1529 1 11.2079 10.9499 5.35397 -1.28568 0.295602 1.5655
1526 1 12.2005 12.1965 5.99659 -1.95995 0.60446 0.246591
26080 1 13.4786 11.8294 5.00802 1.89868 -11.1334 8.54128
1605 2 13.5178 13.2606 6.98413 2.78211 -3.83018 -10.8642
100 1 20.4594 12.6317 4.95229 -0.43142 -1.35798 -0.345504
97 1 21.858 11.4422 5.29648 -0.674055 -0.813786 2.18257
24 1 21.2448 12.5118 6.43587 1.1329 -0.356999 0.0233199
95 1 22.4093 10.6234 6.67681 -1.24449 -1.3715 2.38518
26096 1 23.286 13.4287 7.00072 0.0675704 1.02827 1.34599
1625 2 31.4829 11.9488 6.08513 -4.70088 -0.332482 -1.98248
1623 2 30.5397 10.6476 7.33271 -0.916637 0.0621755 -3.55585
185 2 33.5533 10.8259 4.79082 0.0199912 -4.42766 -9.31046
259 2 35.2527 11.8007 5.37432 -2.93268 -7.74706 4.96512
1631 1 37.9366 12.2851 5.5026 4.58014 0.100686 -2.23068
26180 1 36.5182 13.1657 5.22031 1.16907 3.33076 -2.4872
187 1 38.8749 10.8587 5.72234 6.37379 2.55554 -4.1264
263 1 40.301 12.8773 6.78939 -0.891588 -1.73903 0.25644
1636 1 38.6941 13.2522 6.62393 0.0997765 0.997229 3.40234
1554 1 39.9179 11.2953 6.95789 2.01502 1.53719 2.87554
1562 1 45.4478 12.1503 6.66518 -0.0668161 0.657887 4.96499
195 1 46.5644 13.1538 5.90994 -1.59107 6.10097 0.707967
114 1 46.8751 12.4928 4.43154 -2.60733 1.8646 2.0337
48 2 47.5534 10.6188 7.03668 -6.99221 -3.85119 -0.706306
26191 2 51.8971 11.8754 5.31888 -0.0813913 1.83337 3.29689
197 2 50.8977 11.5738 7.26267 2.75282 2.23877 -10.2978
26120 2 53.5805 11.1739 6.30442 2.95252 4.13746 4.14147
208 1 59.7006 12.5904 5.04925 -1.5034 -4.0395 5.14209
1654 1 60.8958 12.5671 6.23555 1.08185 2.13947 2.5536
136 2 61.9155 11.9405 4.89766 -3.7669 -2.11586 1.40399
135 1 61.908 11.8462 7.3377 1.02989 -3.47865 2.25576
26212 2 66.6999 12.3394 5.72949 -1.01874 -0.939864 -0.0898677
1662 2 69.4894 13.0639 7.24093 0.675528 -0.287442 0.275675
1666 2 77.6798 10.649 4.43456 4.9766 -0.369274 -0.738315
152 2 79.2955 12.892 5.28886 1.1255 -4.56522 -6.70229
1753 1 6.92436 16.48 7.28373 -2.62019 -3.18588 0.873882
160 1 9.01068 14.0627 6.50526 2.91019 3.21764 -0.843171
163 1 10.6124 14.4901 6.24485 -1.0557 -0.25559 2.63175
1602 1 9.19703 16.0057 7.40992 3.59696 2.10194 1.64312
26152 1 7.84265 15.1929 6.82023 0.717798 0.853089 0.209576
1681 1 10.3413 16.1248 6.1612 1.55841 -3.25373 -3.37476
88 2 13.547 14.4218 5.29631 -2.50488 8.49646 4.33206
235 2 12.0792 16.2514 6.92342 -2.47465 4.90622 2.36159
162 2 13.1906 16.4126 4.96595 -1.99022 -2.80013 3.25898
1611 2 15.4893 13.7673 5.54983 -2.98402 -1.30398 1.24644
168 2 14.9658 14.7285 7.28321 -3.33169 -1.21286 0.123433
1613 1 22.0158 13.9621 5.97594 0.884248 -0.715734 -1.33338
26239 1 22.1429 15.4617 6.76702 0.682944 0.177994 -1.68389
1614 1 20.5917 14.3311 5.04764 1.82535 -0.668075 0.779144
174 1 20.4414 16.0076 5.38007 -0.706917 0.370432 -0.451832
26168 1 22.1249 16.0066 5.16061 -1.30542 0.144327 -1.13074
252 1 20.6341 16.2258 7.07904 0.726451 0.878911 1.64568
26163 1 23.1773 14.714 4.96488 -1.94921 -0.0294823 -0.603242
26171 1 24.3997 14.0335 5.89579 -0.0786548 -0.0775559 -2.35398
1697 1 25.4598 14.2683 4.6433 1.54731 -0.821299 -1.25488
181 1 28.2405 16.5094 5.20926 0.614022 1.10658 1.19023
179 1 26.7817 14.7165 5.50222 -1.00878 -1.16383 -0.0778599
183 1 28.2382 15.1375 6.16392 0.673374 0.888199 0.174707
3219 1 29.8779 15.2882 6.44995 -0.64663 -0.372305 -0.19739
1701 1 31.5428 15.5182 6.32525 -2.79076 -2.53655 1.54999
3142 1 29.8186 16.6599 7.37308 1.65114 0.784423 -0.486639
184 2 31.757 13.9104 5.54856 0.380082 0.00861847 0.553137
3145 1 34.9386 15.9844 7.06902 -0.115189 1.55196 2.35375
1630 1 37.3489 14.6546 5.34354 0.982515 -2.32774 1.20386
1705 1 37.5302 14.6572 7.00593 -6.96205 2.56565 1.33737
335 1 37.3195 16.2087 6.44937 -7.90356 2.22983 -1.0104
26327 1 36.6131 16.4761 4.97011 1.17298 -2.1124 0.401958
264 1 38.5812 15.795 5.39471 -0.729264 -0.888666 -1.74472
1706 1 39.1423 14.8824 6.70237 -2.92896 6.27872 1.48379
1633 1 40.8034 14.5433 6.73065 4.20156 2.41403 -4.48545
26188 1 47.0386 13.8572 7.35528 -1.44744 1.96363 0.817617
121 2 50.9975 13.789 5.71005 0.352863 -3.94508 0.554436
275 2 50.7439 15.7783 6.3764 -0.243552 -3.2586 1.01021
1651 1 56.0372 14.3583 7.22875 -1.55219 1.16131 -2.33461
1721 1 57.6355 13.5152 4.7719 -1.20339 -0.728458 0.222262
26199 1 58.7874 13.5774 6.05974 0.475955 -1.84784 1.13259
203 1 56.6446 14.5334 5.68444 0.349707 3.39359 1.60926
207 1 57.6616 14.1574 7.18369 0.0474429 -0.114988 -1.96495
1657 1 60.0325 13.6196 7.23922 1.77427 1.31357 2.66666
1661 2 66.0831 15.3203 5.44199 2.92253 1.70217 -1.88834
1737 2 67.9596 16.0349 4.98055 0.843292 -0.7322 -0.286976
1735 2 66.3134 16.024 7.35515 -0.126784 0.0109805 0.237722
295 2 68.6404 14.3146 5.88978 -1.93549 -0.790324 0.921942
224 2 70.6382 15.6077 6.02159 0.434413 -1.32749 0.486747
218 2 70.5671 14.0767 4.63853 -1.23844 -1.13123 2.33244
373 1 74.0924 15.8239 5.18015 -7.08072 -1.27487 -3.0117
297 1 72.2346 15.9074 5.51103 -3.84432 -3.87116 9.89552
1741 1 72.7368 16.4905 6.91266 -1.77313 0.855886 10.5452
228 2 80.0488 14.0453 6.90267 -1.81666 -0.900219 -2.93246
1819 2 79.8839 14.5198 80.5699 -0.252424 0.234785 2.15126
1674 1 7.12378 19.5343 4.71327 -1.61799 0.456659 5.2274
158 1 7.47991 18.5768 6.02528 -9.14498 -6.58135 2.40276
231 1 8.28909 17.2598 6.72251 -4.07451 -4.8323 -4.51912
1746 1 9.66098 17.6031 5.80084 3.01375 0.886804 -2.33309
236 1 9.02132 19.1574 5.96895 4.84346 0.0487561 2.52824
240 2 12.8366 17.9885 6.19869 0.288732 2.15999 -1.34014
238 2 14.2389 19.3742 5.70564 4.09245 -2.80035 2.41774
26237 1 18.5516 18.5929 5.14304 0.782475 -2.44365 0.522814
26312 1 17.0193 19.3242 5.01899 0.553313 -1.44668 -0.680235
26311 1 19.8687 19.0452 6.36141 1.07307 -1.9532 0.212338
397 1 20.8019 17.9028 7.22171 0.0863384 1.33274 -0.0643678
1847 2 27.4071 19.3633 6.21198 2.43789 -0.808912 -0.551132
251 2 25.7173 19.3161 5.00037 -0.835216 -0.0226474 0.0660738
1704 1 31.3328 17.1155 6.83241 0.368904 1.86089 0.360197
255 1 29.1823 17.5378 6.11159 -1.92418 0.268207 1.40388
1777 1 31.2639 19.1966 5.57994 -0.517497 2.14189 -0.763403
175 1 29.9896 18.8964 6.67474 -1.37286 -2.67867 -2.24652
1699 1 32.334 17.9125 5.74284 2.67396 -0.887297 3.39957
1775 1 33.9364 18.3303 6.03076 1.73248 1.34702 2.31983
339 1 35.4142 18.7929 5.37851 -0.327277 3.81948 0.731504
3146 1 35.1361 18.3536 7.16479 2.58759 -0.480365 1.42095
1779 1 36.2071 17.0476 7.40464 1.47667 0.422102 3.00449
196 2 49.0164 16.6236 5.44299 0.436134 -6.69427 -0.956285
1638 2 48.9908 18.0623 6.9641 0.0510816 -3.13259 -3.40798
26263 2 47.3022 17.3598 4.43001 -1.57329 0.726864 -4.36425
1794 2 51.6908 19.5344 6.32065 -1.74091 2.47334 -0.908129
1718 2 51.0205 17.7095 7.07199 -1.50931 1.26274 -0.88792
1800 2 51.5082 19.2749 80.5303 -1.84908 1.4858 0.415276
1797 2 53.6212 19.1667 6.98976 -0.0178132 -0.249028 -0.165049
3176 2 57.764 17.2111 6.42889 0.00252943 -0.337851 -2.54869
26357 2 59.3476 18.2228 5.53332 -0.504696 0.186243 -0.817404
286 2 61.0232 19.319 4.99863 -0.724061 -0.0637225 -1.31749
357 2 59.3391 19.3894 7.21153 1.53531 0.717783 0.138563
296 1 66.2149 18.3411 6.0798 0.0894333 5.60871 -2.47413
291 1 67.3355 19.0495 4.91683 -0.560777 1.53066 -8.91459
26287 2 69.8637 16.7384 4.45099 0.811231 1.68157 -2.95517
26291 1 74.0355 17.2417 6.1116 6.78409 -1.41973 -3.8877
299 1 73.8218 18.716 6.8161 -0.371173 2.81618 0.714995
26147 2 79.1407 16.6309 5.84764 0.924805 -4.95689 0.938624
303 2 4.44006 17.2963 7.03706 -3.32225 3.90658 2.92018
1748 2 78.1086 18.1632 6.81171 -3.27083 1.4047 -2.16811
311 2 9.13822 21.9087 5.60621 -0.608161 4.95453 2.57107
26232 2 11.1124 21.3149 6.01327 -1.12387 2.59004 -0.671146
237 2 12.6787 20.1804 6.69053 5.77516 -1.17629 -0.89862
26231 1 15.5289 20.11 4.93668 0.851164 0.335142 -0.380031
244 1 19.0204 20.1554 5.42816 -0.0392231 -2.85223 -1.30378
1761 1 18.8231 21.2708 6.66243 2.49355 -0.933105 -1.52616
319 1 20.0991 20.4231 7.34177 0.666796 0.403466 -1.14045
400 1 21.7741 20.5907 7.37185 0.575333 0.454131 1.97524
256 2 25.4568 22.0055 5.95144 -0.340256 0.236213 -0.645287
328 2 23.5366 21.4113 5.41874 0.145904 -2.5454 -2.12749
1762 2 23.5464 20.4817 7.25257 2.17174 0.944298 -1.40916
323 2 25.5713 20.1592 6.87224 0.638971 0.416324 1.29508
26319 2 26.5014 21.1179 4.39335 -0.749543 0.206645 0.998714
329 2 28.283 20.0626 4.45781 0.462305 -0.343215 0.251471
26395 1 32.0899 19.9136 6.85326 2.55479 -0.510879 -0.664742
1778 2 36.338 20.4268 5.49815 -1.64582 1.14923 -0.584283
1784 2 37.6726 19.8527 6.95572 -2.10347 -3.59442 -0.865826
1702 2 35.8422 22.0812 6.75381 -5.67912 -2.67001 1.6542
343 2 40.3603 22.1355 4.91381 -2.3415 3.07782 -4.84274
1781 2 39.095 21.0836 6.1297 -1.35271 2.69483 2.22393
268 2 43.0216 20.2106 5.4479 1.21319 -0.434547 -1.16596
1783 2 41.7892 21.5987 6.32943 -1.22094 -1.34104 -1.58357
1785 2 44.48 20.6702 6.88059 0.194575 0.633751 1.6868
26419 2 49.5002 19.6139 4.52186 1.10123 0.0133852 -1.35661
356 2 49.6737 20.0158 6.58074 2.88035 3.23956 -0.102059
1729 2 61.2266 20.0911 6.88206 -0.521468 -0.361707 -0.164194
365 1 64.2638 22.3246 5.51172 1.31667 -2.3397 -0.627227
368 1 64.217 21.7019 7.03542 9.68152 2.83579 -2.49297
1809 1 65.4317 21.16 5.34262 4.28158 6.55774 3.57916
367 1 65.7858 19.6041 4.71638 6.03458 3.35468 -1.90772
26360 1 67.6133 21.6876 7.11748 2.52534 5.43861 2.14523
1813 1 67.5166 20.3956 6.00763 -0.595065 -0.469063 2.83575
362 1 66.9777 21.4974 4.77797 8.93558 -4.72832 -1.98289
1734 1 66.1729 19.8127 6.88175 -2.83323 4.16815 -2.35863
363 1 65.8962 21.4888 6.94334 2.8696 -1.52005 4.46965
371 2 70.0914 22.8452 4.7782 -4.19423 -10.3454 -1.41347
1817 2 73.448 20.1586 5.99185 5.39029 -1.1574 -5.97788
447 2 72.5132 21.2807 4.52787 -7.78554 1.63216 1.69695
380 2 77.0057 19.8868 7.16228 -3.53826 0.970162 5.27585
1818 2 75.212 20.8334 6.68863 -2.76656 -1.82633 -3.97449
1821 2 76.2835 22.492 6.52407 9.71386 -8.67534 2.44357
389 2 9.94035 25.1 4.44122 1.47457 2.8672 -0.0886141
313 2 12.0656 23.1432 6.04973 -0.632202 -1.6449 0.914253
465 2 12.8687 25.0854 6.07002 -1.37853 0.836203 0.618072
26399 2 23.3529 23.3967 5.05616 -2.71988 3.74538 0.825746
26393 2 24.1516 25.1885 4.65361 1.3523 2.36472 0.258989
406 2 25.5349 23.7321 4.75619 1.54139 -0.949325 -0.93158
402 2 23.6498 24.2126 6.93994 0.961219 0.687595 0.436926
26322 2 32.8808 23.4778 4.48144 0.156526 -1.37 -3.6174
1849 2 34.907 23.3177 5.40594 -2.07867 2.00018 5.61979
408 2 35.7744 24.8445 6.40587 11.3509 -0.838342 2.25911
340 2 37.4635 24.7908 5.39538 -10.1322 -8.9462 -3.67579
26407 2 38.6582 23.2382 4.62523 7.02167 6.18039 -2.88795
338 2 39.0488 24.2371 6.74479 -4.15973 1.08525 -0.531113
26411 1 48.0874 24.6671 6.00401 -2.94015 2.75108 3.40575
1870 1 49.1246 23.5245 6.98002 -0.580213 3.53805 -3.0864
26260 1 47.6035 23.995 7.42374 0.306527 -0.217948 -1.48302
345 1 50.046 24.3411 4.84172 2.96272 -1.5663 1.65378
1871 1 50.6448 23.9463 6.37354 -0.46735 0.526953 -1.78818
1873 1 52.2441 24.1604 5.75526 2.59249 -5.39011 1.56041
1947 1 50.6839 25.2092 7.50427 -0.970334 -3.52151 -2.97941
26271 1 54.1277 24.1067 5.61106 4.28042 4.15631 -1.55009
26266 1 55.5734 24.1696 4.72416 2.5079 -1.53681 -2.96242
26423 1 53.2827 24.2194 7.07201 2.34702 0.166681 1.5548
26356 1 61.8455 25.0957 5.94437 8.3242 0.39065 3.03325
26351 1 62.9323 23.1295 4.96372 2.12677 -1.20047 -2.12569
439 1 63.068 23.9843 6.42115 -2.22376 -1.26298 1.15009
26359 1 67.7297 22.6821 5.77051 2.97652 -6.86279 -6.71573
443 1 67.7842 23.9247 7.08996 -3.57844 2.11779 -4.62886
1814 1 69.057 23.5725 6.11205 -3.19648 6.28513 4.46936
372 1 70.1311 24.5384 6.92576 3.83413 -0.426504 -4.46059
26435 1 68.7945 25.35 7.42566 14.2834 4.94722 -8.55455
26444 2 71.9865 23.3171 4.5161 -1.00729 -2.99992 8.97173
376 2 74.0281 23.7668 4.82792 2.38422 6.6619 4.05797
26521 2 75.0485 24.1932 6.55476 -6.0953 2.41502 -0.579748
384 1 77.6513 23.2808 6.59805 -2.04226 -3.28037 1.16841
381 1 79.0266 24.1961 6.51818 -4.32377 0.00806702 -1.0646
26447 1 80.3017 22.901 4.60267 8.50918 -2.76025 7.45072
26443 1 79.0089 23.9386 4.76721 3.22505 -1.64932 -3.3751
307 2 11.1725 26.0818 6.59798 -3.57961 1.1839 -2.50706
461 2 11.0178 26.8406 4.72228 -0.516888 -1.732 -1.57969
26384 2 13.0527 27.2744 4.54911 -0.347239 -2.10136 0.723077
1768 2 14.4978 26.1014 5.41622 0.563051 0.517414 -0.398994
395 2 16.2465 27.0976 5.83883 0.113695 -0.895516 0.22282
394 2 17.2554 25.8268 4.57716 -0.846532 0.45372 -0.210399
399 2 18.1377 27.7284 6.36984 0.709982 -0.459101 -0.546454
26390 2 21.1482 26.613 4.95519 -2.37682 -0.304537 1.08046
475 2 20.2027 27.7565 6.35035 -1.55703 -1.21672 0.0874436
477 2 22.7656 25.9125 6.0397 -0.0334281 -1.30512 0.82553
26400 1 29.0047 28.3217 5.59824 4.1792 -3.11258 -0.526357
1930 1 30.6253 28.7601 5.9043 6.52681 2.49971 -6.81714
1854 2 36.3494 25.7365 80.073 -3.95911 1.4866 -1.15741
26406 1 39.6566 27.4972 4.99359 -12.2143 4.1956 -0.768972
26563 1 40.8038 28.0324 6.13114 -13.7759 8.1666 0.492643
25043 2 45.4321 28.4894 5.98275 -0.427018 -2.38319 3.56357
418 1 46.3681 27.4582 7.28828 -0.961053 1.05088 0.517104
421 1 47.1883 25.9872 6.51544 1.11742 -2.87642 -2.22403
26495 1 49.233 25.8249 5.56699 -1.02978 4.36629 3.55009
426 1 48.0141 27.338 7.06304 -0.301291 3.25877 -0.54547
1869 1 49.2835 26.1768 7.23845 1.04704 -1.39932 -4.97669
503 1 48.9153 28.8336 7.2342 1.75062 4.05127 -1.45601
1949 2 57.5254 27.3303 6.8034 1.10188 -0.0945138 -3.16218
511 1 59.3483 25.1876 5.60589 -0.499792 0.745923 3.57909
26504 1 59.0141 26.4198 6.72309 8.78014 3.76225 -1.1358
1878 1 60.6879 26.1964 5.4201 4.16771 5.72215 -4.83462
1802 1 60.5969 26.8502 6.96778 4.08264 2.58071 -0.0380497
1881 1 62.0915 26.1182 7.34529 5.38653 3.96846 2.60013
1962 1 68.0026 27.1823 5.93666 -13.6444 -12.8934 -4.96928
26583 1 67.0436 27.5499 7.20555 11.9421 -9.52163 0.248574
597 1 67.1139 28.3454 5.04899 4.2554 -7.92768 -15.2775
515 1 69.4016 26.8441 6.89988 -3.98834 -5.80787 6.24255
1894 2 74.3129 28.4023 7.05001 -9.61256 6.02584 -1.06027
456 2 74.6427 26.2745 6.91029 -4.90088 0.119535 -18.2046
449 2 75.2194 26.3643 5.10552 0.239552 -6.40046 -7.04275
450 2 76.8252 27.7294 5.13051 8.23161 1.94091 -9.21071
26452 2 5.60191 31.5575 4.98301 -1.5046 -0.11975 1.2084
459 2 7.10727 31.4121 6.43334 1.16323 -0.604074 0.438169
1837 2 15.4793 28.9236 6.39316 -0.424384 -0.125611 -0.290452
393 2 13.9764 29.0602 5.02593 -0.365737 -1.2269 0.341378
1914 1 17.1647 31.5275 7.23498 -0.231208 -0.483018 -0.314419
549 2 19.9786 28.9113 4.63304 -0.364451 -0.882718 -2.35045
471 2 20.8563 31.463 6.29465 0.815589 1.76263 -0.130494
559 2 25.7528 31.8811 6.06154 -1.24813 1.92114 0.358018
1926 1 28.0657 31.9086 6.96318 -15.4287 -4.12818 -0.584628
1929 1 31.3728 29.6708 7.14667 -4.27205 1.92183 3.3327
483 1 30.9646 31.2548 6.64238 -2.21803 -4.5286 0.681634
412 1 30.9912 30.0245 4.7144 9.91137 -4.03946 0.78813
26479 1 30.2615 31.5556 5.08933 12.7146 -9.05192 -2.66495
1933 1 32.223 30.6358 5.80941 -8.30517 -15.043 -11.8781
492 2 33.7245 29.986 4.5251 6.95799 6.0029 -3.44179
488 2 36.4116 31.1637 80.2127 19.2487 -2.36488 -1.33217
1940 2 38.2726 31.4344 4.95035 -9.54648 12.8112 4.24654
26632 1 39.923 29.167 5.15678 22.9648 2.26347 -16.7632
1945 2 42.4566 30.2724 6.65899 3.57196 2.60264 -3.2181
26487 2 44.8702 30.0673 7.08965 -0.938971 6.53699 7.57717
422 2 45.8303 30.6274 5.32963 -0.999579 5.01167 -3.60267
26490 1 48.8682 30.3619 6.55511 3.73616 -0.774735 0.661801
26569 1 48.4802 31.715 5.59935 -0.0628392 1.95277 1.88031
1942 1 50.2344 29.7789 7.68242 0.849823 4.1615 -0.12043
498 1 49.7776 31.3813 7.56112 -1.44353 3.23497 3.90746
26571 1 53.1461 31.3562 5.79218 -3.21033 -1.1892 5.44614
1946 2 53.3305 30.6252 4.38392 -1.53155 6.7951 1.24557
508 2 56.6184 28.9549 5.95787 -3.09754 0.21386 -1.15853
436 2 57.1033 30.062 80.6001 4.09236 2.07426 1.33548
26584 2 64.6917 31.7748 5.54132 12.6399 2.83303 -5.8342
1957 2 62.8694 31.1871 6.59167 -2.04532 7.32146 1.87797
1958 2 66.0836 31.2765 7.00266 -9.98667 10.798 5.24948
520 1 66.7381 29.016 6.54509 -18.3292 10.1708 -1.02302
26515 1 68.2364 29.7652 6.21178 5.60103 3.11556 -1.40908
446 1 68.3356 29.2874 4.52127 -18.9154 -1.25238 8.27615
514 1 70.2112 28.0075 6.11925 2.75437 12.8788 -12.3079
26514 1 69.4446 30.0749 79.828 -1.00674 6.97664 0.176328
595 1 69.2288 27.6916 4.73964 16.8142 9.55683 -6.14093
522 1 69.0227 28.6788 7.2335 3.71842 6.84933 -1.41207
525 1 71.3614 28.851 5.4391 15.4545 -11.5828 7.87066
518 1 70.2696 28.8266 80.4808 -6.7364 2.77759 -6.88384
601 2 72.9055 28.6577 5.52379 1.18943 8.38088 2.14253
1965 2 73.816 30.5648 5.60058 0.621956 -4.03611 -2.33541
526 2 75.3471 29.0809 5.37592 -6.84018 -13.2835 -4.00886
26527 2 7.20071 33.4261 5.95583 0.390407 -0.539147 0.521741
2049 2 5.11043 33.2517 6.08614 -0.0933913 5.04849 6.10882
1977 1 4.60878 34.1557 4.44749 4.83217 0.657193 3.93969
534 2 9.24073 33.3229 6.21075 -0.106055 0.608923 -0.306533
541 1 11.1835 32.4829 4.80092 2.11544 0.767768 -0.121893
538 1 12.7474 32.0701 5.09532 1.48957 -1.15719 2.61429
26532 1 11.0157 33.0805 6.36739 -1.27285 0.182867 0.0853063
26531 1 12.6935 32.863 6.58352 0.113927 1.31311 0.607118
26526 1 13.2456 33.5555 4.4029 -0.504495 1.52713 1.33748
539 1 13.9259 33.8401 5.9337 -0.722613 -2.11837 -1.54606
466 1 15.8911 32.6244 7.39686 -0.356622 -0.172416 -1.21918
26463 1 18.2049 32.7687 6.80184 -0.831784 0.496524 1.3038
470 2 19.1235 31.9007 5.21513 -0.300413 -0.655599 -0.415285
468 1 16.8013 33.6092 6.366 0.280337 0.0658483 -2.94847
542 1 17.5902 34.7527 5.40028 -2.06227 1.48122 -1.10636
26543 2 21.5922 33.3934 5.86018 -0.00546758 -0.0719443 -0.561301
556 2 24.3408 33.1837 6.82958 -1.13623 1.18805 0.20216
554 2 23.3343 32.6362 5.07365 0.746882 0.0898994 -0.0452234
484 2 27.1852 33.2744 6.47051 -0.00681869 -1.32739 1.02185
1922 2 25.6884 34.619 6.05157 -0.378129 -1.30092 0.517428
629 2 26.8472 34.2521 4.39191 1.25085 -1.26848 -1.73921
26480 1 29.5331 32.7404 6.12393 0.682735 2.67569 -5.23456
2233 1 30.4074 33.781 5.07966 -13.6421 0.305362 15.2951
486 2 34.9532 31.57 5.33515 -7.52594 -22.382 -18.1624
2006 2 35.5517 33.634 5.44955 -3.46415 -12.3655 -10.6899
26559 2 37.4942 33.2308 5.47211 -4.10015 7.21225 6.35295
26560 2 37.9506 33.6335 7.56138 -1.51021 -1.52213 11.8189
1939 2 42.6163 32.2681 6.10071 0.760496 -2.49861 1.13959
500 2 44.4256 33.1546 6.57681 -2.88896 2.55256 -5.97107
26645 1 47.3403 34.7687 5.51812 2.0051 0.0487787 2.1355
570 2 45.9659 34.4907 6.53628 1.41656 -1.7171 0.771897
573 1 47.6487 33.1452 5.35157 0.882637 -1.03992 6.80496
26568 1 49.1283 33.8456 5.29029 4.09803 -2.24933 -1.47171
26491 1 49.7247 32.634 6.33065 1.29777 0.0477964 -0.584602
26496 1 52.3615 32.1822 7.01264 -4.67568 3.48267 5.9803
499 1 51.0103 33.7406 6.49532 1.55138 2.19132 2.07357
2022 1 53.0661 33.6754 6.48284 0.836606 1.65996 3.08435
26567 1 52.2524 34.622 5.34647 2.73285 1.23693 4.12778
2094 1 50.6032 34.6611 5.12024 -0.00863524 -2.86016 1.01609
578 1 54.2109 32.7017 5.66476 -2.05953 2.38573 2.14327
660 1 54.8763 33.6397 4.39954 -1.12976 2.75569 0.238016
26580 1 56.1335 34.2186 5.37971 -3.83257 -2.34658 1.82901
2025 1 54.1899 34.9577 6.70936 -0.470573 -2.26293 3.58051
577 1 55.5905 34.0287 6.97586 0.896061 3.50044 0.285393
588 1 57.2809 34.7385 6.41385 1.16952 -2.14166 -1.74959
581 1 57.4695 33.2674 7.18622 -2.17333 -0.151761 0.185445
2037 2 61.0942 33.5332 5.70409 3.32979 -4.73309 6.49651
592 2 60.6812 31.4368 5.74701 -3.40777 -2.47383 -4.6825
1964 2 60.6665 33.6642 7.66134 2.65055 -9.95912 -4.65975
2030 2 64.2564 32.7253 79.7984 6.41342 0.000224629 18.1166
26591 2 71.4676 32.3504 6.71497 -2.49623 -0.327622 -6.70991
600 2 70.4758 34.0864 6.08314 -2.5135 1.36076 -4.49912
599 2 71.8986 34.9951 7.34427 1.45116 -0.933477 2.43055
524 2 72.8283 32.2513 5.01786 1.21246 3.77707 -2.99388
1971 2 74.9486 32.0902 6.61345 4.29141 0.591014 -1.66902
26519 2 76.2677 33.5818 7.3445 0.152073 -0.603315 -2.59228
2045 2 76.6921 33.6214 4.41614 -5.00159 4.20647 5.5509
678 2 74.598 34.7446 6.89104 1.91461 0.43835 -0.578283
528 2 74.8126 32.9086 4.68775 -0.0286369 -0.302594 2.35997
2046 2 4.96722 34.9833 7.31091 -2.41831 -0.279645 -0.886109
544 1 15.0236 35.0361 5.50481 -1.21151 -0.44032 -2.44711
1990 1 16.4265 35.9314 5.32542 0.77064 -0.48206 3.841
619 1 16.2055 36.7519 6.77122 -0.866165 -1.37739 -0.799959
543 1 15.3864 35.3114 7.12324 -0.372616 -0.202963 -1.00731
620 2 14.7628 37.8964 6.43653 -0.0240743 0.679467 -1.4026
2062 1 17.6109 35.776 6.74809 2.49094 1.90116 1.75721
2069 2 21.9841 38.0535 4.49627 -0.271945 0.213975 1.34761
26547 2 22.5458 35.2161 5.70089 1.81491 -1.07366 3.84209
631 2 23.617 36.8541 6.42513 -0.242574 -1.43595 0.866696
2070 2 24.0322 37.8309 4.65982 -1.04223 -4.0716 0.764047
2005 1 30.2997 35.3982 5.57717 -5.15982 3.02361 5.28424
2081 2 34.6265 36.3101 7.04064 -2.39514 4.39507 0.0879409
639 2 36.2288 35.6727 6.11275 -10.6456 4.76485 13.4097
25191 2 37.3391 35.0003 4.43357 1.75784 -9.47656 -4.87769
2013 2 39.4186 35.1383 6.78838 -5.10132 1.08853 -4.55253
566 2 39.3493 35.3561 4.64774 -6.86869 0.384492 -1.76169
642 2 40.837 37.486 5.7212 0.447852 -2.20759 2.11231
2010 2 41.4363 35.9223 6.95514 -2.23741 -2.752 3.3521
574 1 48.4566 35.072 80.6249 -4.28157 0.473604 7.23218
651 1 53.2505 35.9408 5.71032 1.06152 2.06761 -0.166105
656 1 54.3261 37.4224 6.49517 1.94163 0.29676 -2.21207
583 1 56.0795 35.9019 5.60221 -0.625947 0.684955 0.7445
653 1 54.7799 36.819 5.01197 -0.063608 1.27402 -0.64447
584 1 55.3223 36.1837 7.11585 3.14952 0.38368 1.87518
674 2 70.3841 36.0733 5.48529 -1.63878 -1.79126 -2.58364
675 2 70.5536 37.9596 4.8503 6.71059 -2.61105 -1.886
598 2 70.8162 36.8626 7.34372 -1.96614 1.48709 -1.47549
604 2 73.0396 35.2152 5.61262 2.17747 -5.5737 8.69692
684 2 77.2201 35.3256 7.01603 -1.1413 -1.70844 0.415427
26671 2 75.9424 35.2846 5.42025 1.35823 6.7424 -0.988353
26603 1 78.6247 38.0673 6.55097 3.89084 -1.84883 -2.85859
26604 1 79.347 36.755 5.8125 -0.302412 2.39245 0.784626
681 1 79.9226 35.4362 4.99757 2.22918 2.87844 1.13406
26676 2 79.2138 35.5354 7.25698 -2.4933 -2.73014 -0.377397
609 1 79.4501 37.6519 4.38973 1.75141 5.33554 1.7351
758 2 6.70515 40.8941 5.40769 0.322476 -0.303212 -1.68124
692 2 7.12638 38.8781 4.52084 -0.323839 3.84395 1.77651
26679 2 7.70159 39.432 6.38901 -1.10416 -0.447092 -4.45127
26608 2 9.5163 38.7156 5.7643 1.55925 0.983829 -0.0459425
2057 2 12.0358 37.9845 6.81063 1.57298 0.693079 0.611734
613 2 11.3074 38.1279 4.93826 0.810074 -0.0872735 0.100046
615 2 12.0988 39.8981 6.08865 1.32908 -0.622064 0.101201
618 2 13.9877 39.4537 5.4169 0.0820273 2.24827 0.687912
700 2 15.5918 40.6732 5.86205 1.19373 -0.648099 -0.498102
623 2 18.8022 40.4121 4.99843 0.734445 0.945787 0.0549175
26695 2 20.6701 39.6453 4.68098 0.944728 0.569419 0.393265
711 2 30.955 40.3161 5.90925 -4.46081 0.446759 5.54564
640 2 33.9758 38.1661 6.50581 7.94637 1.01829 5.42684
634 2 32.8687 39.8348 6.30091 -17.9563 -9.54608 10.4371
26636 2 41.0399 39.1221 4.48468 0.762022 1.4266 0.82634
646 2 43.7899 38.0342 4.55855 -0.204266 -4.64244 1.91015
2090 2 42.5463 39.72 5.80208 -2.17311 6.21579 -4.64503
26639 2 45.4877 38.204 5.94853 0.466911 -4.38893 -1.12582
652 2 44.7121 39.7966 4.88476 -0.820793 -0.0565259 4.99722
650 2 47.3444 39.0036 6.43247 1.72701 0.378326 2.69784
725 2 47.9014 40.6486 5.25986 -3.98316 0.34998 2.87803
26643 2 49.3341 38.7371 6.72304 -2.34989 -1.02587 -0.289228
667 1 62.1073 38.8444 5.1355 -10.5527 15.9254 -4.3505
596 1 63.9125 38.3828 6.71727 5.03431 -4.55761 -8.15334
673 1 62.4006 39.1555 6.78951 13.2094 -5.44807 0.263801
671 1 63.8654 38.9914 5.10813 3.58712 -3.94378 1.03733
676 1 64.6652 40.1571 5.98761 -6.0257 10.3323 -2.01125
744 1 62.9779 40.6647 6.18355 4.08928 -4.69274 4.29364
26664 1 64.0252 40.1894 80.2373 -1.16739 -4.43188 -2.29586
2185 1 65.5152 38.792 6.40218 -4.04585 11.0353 -0.825485
3561 2 67.2009 38.9979 5.9347 -7.20924 -3.05264 -3.34106
26668 2 69.3733 39.5822 5.31768 -4.92689 -1.77456 -3.63097
2197 2 71.2326 40.1903 5.86942 3.11638 2.89313 -1.19602
2115 2 71.9999 38.3235 6.42347 -1.25334 0.256449 4.61732
685 1 77.2862 40.031 5.83338 0.553732 4.91264 1.11412
26675 1 77.6881 39.2286 7.25811 -1.48397 -2.36222 -3.11188
755 1 75.9118 40.956 5.44237 2.06638 0.944574 -0.296688
26751 1 78.4862 38.8351 5.10214 2.72987 4.35677 0.782241
687 2 5.69432 42.5717 6.06439 1.10867 -0.545438 0.445379
695 2 16.46 43.1732 4.74083 -1.84001 -2.06163 -0.211785
26687 2 14.8652 41.904 4.38662 0.402333 0.375167 -0.183388
624 2 17.3958 41.6776 5.8542 0.310075 -0.243851 -1.88678
2218 2 18.3297 42.8186 7.32201 0.173611 -0.241094 -0.879347
699 2 20.0331 42.8867 6.13374 -1.43977 0.0582789 1.08292
707 2 29.3339 41.274 4.99948 -11.5943 -1.40891 1.58069
26709 2 32.903 42.1024 4.89949 8.45467 1.37148 10.1551
2155 2 31.8878 41.9139 6.71503 3.15578 10.5449 5.58049
26788 1 35.5545 43.1727 4.91138 20.5004 18.9047 7.54518