ITEM: TIMESTEP
150000
ITEM: NUMBER OF ATOMS
27436
ITEM: BOX BOUNDS pp pp pp
4.3734173088013080e+00 8.0626582691199843e+01
4.3734173088013080e+00 8.0626582691199843e+01
4.3734173088013080e+00 8.0626582691199843e+01
ITEM: ATOMS id type x y z vx vy vz
4 1 5.73059 6.76587 5.45285 -0.517654 1.46295 -1.45683
76 1 4.4963 5.65467 5.1602 0.515897 0.35247 0.232253
25996 2 6.85524 5.88561 4.55408 -0.0608363 -0.229285 0.133974
1454 2 15.7429 6.34702 6.48999 1.87872 0.160674 -0.153405
11 2 14.5842 4.63541 6.6462 -0.67887 0.242453 -0.872143
25999 2 13.7716 4.92188 4.76089 -2.80159 1.0312 1.08473
1458 2 17.6016 4.60401 6.13478 -1.5035 -0.979549 -1.27627
1530 2 17.6044 6.26333 7.37888 -0.640488 0.653798 0.714125
19 2 19.4889 4.67905 5.32238 2.5209 -0.823009 0.545238
26008 2 16.7844 7.47346 5.16256 -2.95294 1.24445 1.33257
171 2 19.8065 6.71061 5.31132 0.483212 -2.03569 0.622128
1391 1 25.5243 4.92142 6.47046 0.308826 -1.43647 1.86263
2840 1 25.9811 5.41434 4.91528 0.682737 -3.1208 -2.68479
2836 1 27.3801 6.07593 5.49644 -0.996085 -0.391463 -0.828343
2834 1 26.9327 5.63925 7.0496 -0.587072 1.45669 -2.26354
29 2 34.0067 6.08086 4.59725 0.671886 0.119039 2.40337
27 2 32.7406 4.61757 5.2751 -0.190943 0.867248 0.308864
31 2 34.6966 5.95552 6.5225 -0.00673419 0.12366 1.55479
1481 1 38.496 5.74115 6.51112 0.738494 1.10022 0.16413
26107 1 39.3111 6.84899 5.57993 -2.18749 1.21415 -0.18513
26028 1 38.6314 5.66195 4.70359 -0.172649 0.677445 0.421909
1482 1 41.9766 5.93872 4.56795 1.60477 1.5304 0.885853
115 1 43.6987 5.30342 4.55057 1.26825 -0.796705 0.0734476
44 1 42.4299 4.47866 5.19474 0.520258 0.0668129 -0.0206261
1412 2 44.617 5.37615 6.14003 -0.194357 -0.534898 0.269873
1410 2 46.5143 4.75399 5.60059 0.239773 0.468629 -0.672852
26036 2 48.3612 4.67538 4.72223 -0.228165 0.262068 -0.0555306
27406 2 50.4256 4.61029 4.78701 -0.721688 0.335884 -0.276352
2862 2 52.4414 4.90321 5.00769 -0.189013 -0.184557 0.131324
1419 1 52.133 4.47005 6.58891 -0.346912 -1.0283 1.41715
1420 1 55.0293 4.94502 7.2569 -0.468235 2.21586 -0.634715
27416 1 56.3577 5.89362 6.80414 0.271026 -0.145043 0.0823155
53 1 57.8939 6.87125 6.42205 -0.779223 -0.254724 -0.338509
55 2 58.9469 4.61597 6.2789 -0.282794 0.0240226 0.318793
1422 2 61.1981 4.54499 6.16767 -0.157402 -0.0728406 0.00979113
1423 2 59.9824 4.62198 4.53293 0.194813 -0.16812 0.0651818
60 2 62.481 5.93091 7.02524 -1.02072 0.633365 -1.92372
133 1 66.6903 5.88032 5.48966 -0.538293 -0.0466679 1.67601
27420 1 67.9463 6.95198 5.71076 0.933684 -0.00687688 0.0229168
1426 1 68.173 5.1473 5.51373 -0.850436 -0.617228 3.3664
26055 1 67.7399 4.89143 7.11874 2.70551 -2.02004 0.960729
1430 1 66.0893 5.18476 6.90563 2.25715 4.70304 4.25851
1436 1 69.0504 7.20364 7.14119 0.293297 -0.782068 -0.0976718
67 2 72.6236 4.81874 6.4045 -0.650078 1.45652 -0.456634
1513 2 73.0142 6.19308 4.91141 -0.107588 -0.140919 0.978834
71 2 74.0982 7.29729 7.39301 -0.589604 0.905089 -0.0697347
65 2 74.8606 6.14 5.8462 -2.10165 -0.71052 -0.0940701
1448 1 78.3009 5.17743 5.02685 -0.803857 0.15575 0.432676
26068 1 79.7415 6.96802 4.85075 0.079162 -0.137331 -0.0599953
73 1 79.737 80.5518 5.25873 0.815077 0.0468161 0.790888
1521 1 6.53518 8.04693 6.15746 -0.368434 -1.17919 0.291642
79 1 6.81191 10.2949 5.05244 0.590026 -4.27238 0.346004
26071 1 7.54206 8.78576 5.02009 1.22378 -0.801356 2.56536
26075 1 9.13201 9.25625 4.6474 -2.85286 1.7029 0.159502
2969 1 9.7487 9.42396 6.93272 1.33017 -0.868206 -0.0366367
1529 1 10.7262 9.78783 4.54284 0.710803 0.269171 -1.90774
87 1 12.8606 9.51051 5.557 -1.06024 -8.58992 -1.55565
1527 1 11.263 9.5264 6.14846 0.214099 0.540487 -1.08528
1533 2 15.2919 8.52175 6.0573 -0.125411 1.11434 0.10959
1457 1 14.4094 9.47481 4.82853 -0.707892 5.34072 -2.60424
96 2 18.6231 8.3575 4.93881 0.372501 0.305819 0.273096
1620 2 19.0314 10.1886 6.19174 1.70727 -2.05199 0.952126
1468 2 20.3126 9.4007 4.80593 0.416343 2.75568 -2.66616
22 1 24.7221 9.72893 4.98916 2.5022 3.34434 -1.36626
1537 1 26.4723 7.474 5.58685 -1.52007 -0.987684 2.42028
99 1 25.3962 6.90857 4.45167 1.02899 -4.5608 3.31163
26091 1 25.8495 8.97416 6.00077 2.58682 8.0582 -2.22738
1538 1 26.9926 8.18731 7.01137 0.550244 -0.276666 -4.80092
1474 2 34.5447 9.93427 7.11129 0.381387 0.012013 -0.923657
30 2 34.9061 7.88516 80.6208 0.790754 0.0885604 1.45128
32 2 35.226 7.92825 6.39255 0.230504 0.166212 0.900518
107 2 36.4769 9.46403 6.82557 0.580695 -0.123046 0.188395
26114 2 50.7087 10.0193 6.36384 -0.397146 0.282621 0.533736
26195 2 53.7881 8.16053 7.23546 -0.293901 0.13734 -0.298383
126 2 55.3962 9.07849 6.30593 -0.0770791 0.253325 -0.391398
26045 1 56.966 8.27838 6.48762 1.48948 1.45077 -0.67765
26048 1 58.908 7.7084 7.4393 1.59366 0.592435 -0.313297
1502 2 62.0053 7.49161 5.74778 2.34815 0.349013 0.397435
140 2 62.5804 9.40917 5.21642 -2.35301 -0.375247 -0.717124
64 2 62.8462 10.1734 7.12671 1.31063 -0.456948 -0.284557
26131 1 68.5525 8.93823 4.39666 -0.958449 -0.324246 0.418911
68 1 68.9912 8.23626 5.84601 0.591721 -1.86557 -0.821923
26060 1 70.1607 9.44322 5.94878 -1.1793 -2.99576 -0.147555
69 2 75.5534 7.89193 5.01947 0.587998 -0.0503617 -0.438056
145 2 75.4218 8.8017 6.88118 0.454129 -0.113576 -0.226739
150 2 77.2712 9.74341 6.88397 1.6962 0.161165 0.0703401
74 2 78.3213 7.98058 6.73536 0.0213931 0.285515 0.234146
77 2 78.743 8.43905 4.7749 -1.61955 0.492302 -0.411396
1666 2 77.8965 10.3213 4.99911 -0.733292 -0.704858 1.44187
1525 1 9.04819 10.491 5.79782 -2.44277 -0.294671 -1.99611
227 1 7.53964 10.6195 6.52288 2.30326 0.0870416 -2.69987
8 1 10.4082 11.3123 5.1722 -3.45277 -2.10854 0.407674
83 1 10.6456 12.7925 5.93789 -1.31313 -1.84655 -3.21956
1456 1 11.3351 11.1847 6.52144 3.36303 3.73476 3.16138
1526 1 13.0221 10.9383 6.50424 -3.1701 -3.33465 2.83523
26080 1 13.0814 11.4106 4.91253 0.568083 -7.15168 2.36132
1605 2 13.3296 12.2869 7.78798 -2.12744 1.95316 0.368704
97 1 23.3472 10.9264 4.75419 0.439922 1.43327 -0.853085
24 1 22.612 12.3384 5.33692 -1.27005 0.512361 -0.0732149
95 1 24.4878 11.0711 5.94519 -1.50251 -1.20837 -0.598944
26167 1 23.7743 12.4698 6.57836 -0.00410973 1.43751 -2.55828
1697 1 26.4028 13.4959 6.86485 -2.9751 -0.751518 2.07353
1626 2 30.5869 11.8315 6.82202 -1.75823 -0.48676 -0.463895
1625 2 32.2298 11.0911 5.7984 -1.35886 0.389174 0.17289
1629 2 33.6828 10.5065 4.41878 -0.0183501 1.18445 -0.42993
185 2 35.4342 11.1653 5.73952 0.362429 0.809934 1.19074
259 2 35.2698 12.8877 6.8538 -0.776603 0.429983 -0.564793
26180 1 36.3971 13.4059 5.5644 0.0966595 -0.802277 0.835453
1631 1 37.688 12.4633 6.09922 -0.308513 -1.00991 -2.1654
189 1 37.9026 11.9894 4.47684 0.156152 0.305575 -0.580104
26108 1 38.7199 10.6605 5.10403 -0.229597 0.416583 -0.158035
187 1 38.6661 11.2114 6.68289 -0.608437 0.107718 0.0853583
116 2 43.7723 11.8685 5.68209 -0.192441 0.136984 0.317607
195 1 46.5279 12.5564 4.66232 0.267314 -0.00768823 -0.233777
267 1 46.7565 13.081 6.21632 0.109938 -0.16855 -0.485831
1562 1 45.5919 11.2648 5.17471 0.340416 0.835836 -1.28838
26188 1 45.9187 11.7692 6.75175 -1.4919 -4.52287 1.15089
197 2 51.7131 11.5316 7.33018 0.56814 0.222936 0.197731
26191 2 52.6709 12.041 5.57559 0.209169 -0.331703 0.272441
26120 2 54.0532 10.5552 5.86789 0.361843 0.0609404 0.600447
26199 1 58.2431 13.1338 6.16705 -1.11735 0.23895 0.433948
208 1 59.035 11.931 5.33441 -0.0738286 -0.318879 0.813093
1721 1 57.3655 13.4153 4.71356 0.290629 0.0642663 -0.55679
1654 1 60.2486 11.8686 6.47354 -0.276537 1.26965 0.335151
136 2 61.0986 10.8524 5.13027 1.80822 -0.763584 0.218568
1657 1 59.4067 13.0203 7.42754 0.202634 3.52288 0.0377292
135 1 61.5582 11.4219 7.42647 1.19281 -0.682694 -0.857836
26212 2 66.2979 11.7941 5.64758 0.0641565 0.442625 -0.11255
142 2 67.5967 12.3062 7.15806 0.768161 0.491699 -0.277144
1662 2 69.3745 13.2968 7.41369 0.805642 -0.466032 -1.4291
1590 1 73.4959 13.2226 4.61962 -0.872678 0.670485 -0.0178263
152 2 79.0489 13.0188 5.10771 0.00651328 -0.35526 -0.880589
228 2 4.85785 14.6277 6.1541 1.1578 0.641671 1.19637
26147 2 6.10389 16.0473 5.31322 0.0195447 -0.458585 -0.0552409
155 2 4.60158 13.6554 80.5952 0.293798 -0.381466 -1.13782
160 1 9.52401 14.951 6.19087 -3.06651 -0.487848 -0.0458354
163 1 10.9822 14.4127 5.62627 -0.580332 3.7452 -6.40158
162 2 12.7079 15.0802 5.09445 1.85966 7.49474 -0.754227
1602 1 10.7822 15.4457 7.13499 -1.75547 -1.01386 -1.29729
88 2 13.4095 14.1745 6.93035 1.65248 -4.95774 0.647229
1611 2 14.4554 14.0231 5.2227 3.41949 3.8119 2.46682
243 2 16.0412 14.9937 6.17135 -5.06084 -1.40461 0.500823
26235 2 17.8324 15.8979 6.93348 -7.13966 -3.12023 -2.3092
1613 1 21.9741 13.8194 5.84516 0.121794 -2.77472 -1.12466
26239 1 21.5882 15.3603 6.51197 -1.68577 0.478772 0.126709
26168 1 22.0894 15.786 4.94194 0.437814 -1.70761 -0.894037
174 1 20.4744 15.619 4.49794 -1.70046 0.714171 0.412681
1614 1 20.9643 14.0021 4.42176 1.59529 0.826105 -0.030282
26096 1 24.6989 13.7111 5.91332 -0.0379403 1.40083 0.969923
26163 1 23.4246 14.476 5.15845 -0.703447 1.27627 1.01481
26171 1 25.2024 14.8441 4.84485 -1.29358 0.0593709 0.636283
181 1 25.9915 14.9892 6.28628 -0.913308 -0.989229 -2.41567
179 1 27.7579 14.4813 6.61109 -1.2702 -0.575286 0.705876
26176 1 27.3243 15.5441 5.41474 0.325633 -2.45055 -0.189264
183 1 28.7394 15.8128 6.53739 0.644588 -0.456582 -0.639201
184 2 31.1024 13.7083 6.09508 -0.435632 -0.555953 0.27215
3219 1 30.5154 15.9699 6.89185 0.257956 0.113119 -0.972472
1701 1 31.8201 14.9292 7.05886 -0.510282 0.890575 -1.53472
1630 1 36.886 14.9794 5.92485 0.406408 0.81103 0.216363
335 1 36.663 16.3282 7.17971 2.57334 1.49395 -2.53805
264 1 37.9415 16.2666 6.06774 -0.292884 -1.53605 -0.912246
1636 1 38.4495 13.7685 6.87675 -4.156 -0.739682 0.145162
1706 1 39.0362 15.3473 6.98385 -2.63181 3.83342 -0.942814
1557 2 42.868 13.659 6.11035 -0.422533 0.296246 -0.317454
192 2 43.6738 15.2052 5.00693 0.04957 -0.00423088 0.134791
196 2 49.4871 16.23 5.59675 0.647704 0.0667634 -0.215034
121 2 51.7991 13.8726 5.98033 -0.0139424 -0.440025 -0.250762
275 2 51.2988 15.7962 6.54754 -0.195416 0.690937 0.160985
1651 1 57.2999 14.0923 7.18663 -0.0958639 0.932497 0.355583
203 1 56.7545 14.9349 5.12668 0.210465 -0.92445 1.58579
207 1 57.7534 15.4965 6.33332 -0.667986 0.236625 -2.1559
26200 1 59.1776 15.5508 7.25807 -33.5417 -20.904 29.8271
212 2 62.9181 13.9045 4.75088 -0.370274 0.276439 0.438105
1733 2 64.3049 15.3947 4.65191 -0.102538 -0.413887 -0.252754
1661 2 66.0566 14.9371 5.7122 -0.955259 0.0330065 -0.150503
1737 2 68.0615 15.4513 5.57573 0.062528 0.604128 -0.624898
295 2 69.0278 13.6372 5.41217 -2.80115 -1.666 1.16245
218 2 70.5192 14.8249 4.676 -0.964897 1.15136 0.640154
224 2 70.8711 16.0204 6.28276 -1.39528 -2.27338 2.68177
220 2 69.1557 15.3426 7.35103 3.41168 0.491265 -1.28221
373 1 73.357 15.9148 4.82321 0.475594 -0.798396 -1.02342
300 1 74.179 14.5402 5.41368 0.118981 -0.303334 0.325465
26291 1 73.3387 16.5302 6.39403 1.36801 -0.286381 -0.220071
1741 1 74.5791 15.4654 6.75864 0.402129 0.745684 -0.500115
305 2 79.0586 14.8323 6.06134 0.473214 -8.96052e-05 -0.337576
1819 2 78.5184 16.0877 4.55038 -1.60019 -2.04157 -1.18052
226 2 5.31026 17.3112 6.75531 0.113541 -0.202326 -0.007134
158 1 7.31853 17.3819 4.61953 -0.0342758 -0.768921 -0.181223
26152 1 8.84934 16.5051 6.34107 -0.0881016 1.06308 -1.06552
1674 1 7.55577 18.8864 5.36748 1.0617 -0.801729 0.0893383
231 1 8.98132 17.1116 4.77563 0.0206039 -2.01527 -0.421904
1753 1 8.34825 18.1054 6.64601 1.95666 0.796212 -1.00558
1746 1 9.7754 18.2872 5.72721 -0.800448 1.08957 -2.65189
236 1 9.0305 19.3942 4.69301 -0.887979 0.191802 2.3155
1681 1 10.4404 17.0421 6.64404 0.390461 1.76134 -0.778711
235 2 12.0556 17.7857 7.13565 -6.89068 1.57019 -2.90269
240 2 13.4057 19.2613 6.86228 1.29334 2.06826 0.057833
26312 1 17.4319 18.817 4.8696 0.760259 0.796913 1.78505
26237 1 18.3104 17.4776 5.40282 2.83353 1.74488 -2.43549
26311 1 19.2458 18.5858 6.33884 -2.7751 -0.187623 -1.612
397 1 20.7473 17.8492 6.22165 -1.89071 -1.37063 0.0980782
400 1 21.413 18.9783 7.26722 2.30524 -2.61406 -1.41177
252 1 20.8681 16.6445 7.38622 -1.95352 4.99 1.22306
251 2 26.9146 19.2212 6.38453 0.0595964 -0.369314 -0.553522
331 2 27.2809 18.4069 4.52974 -0.573151 -0.445465 0.35854
255 1 29.4599 17.2366 6.96399 0.850193 1.01087 2.15975
1777 1 31.1453 19.3236 6.6624 -0.272513 2.72516 -0.289584
3142 1 31.6995 17.1504 6.99603 2.16053 -1.46005 1.9577
26323 2 31.0265 19.5453 4.73131 0.122915 0.179697 -0.641683
1699 1 32.5749 18.5949 7.10496 0.578141 -0.183304 -0.670598
339 1 34.5517 19.5464 6.34574 -1.14254 0.775553 -0.702014
411 1 34.9801 18.427 5.15375 0.23084 -0.239025 -0.0826171
1857 1 36.9524 17.2221 5.09241 0.457566 -0.0213156 0.31574
26327 1 35.8761 17.5703 6.33862 1.23144 0.0731458 -0.500844
341 2 42.5148 17.1203 4.65395 -0.087992 -0.0293025 -0.0971296
268 2 42.9829 18.708 5.90472 0.776294 -0.77196 -0.415513
194 2 45.723 17.6356 4.57503 0.270287 -0.373473 -0.97497
1785 2 44.7589 18.8452 6.95557 0.68903 -0.480321 -0.288859
1714 2 46.8964 19.3387 80.627 0.0711737 -0.750009 0.617524
1638 2 49.4664 18.0125 6.67057 0.63373 -0.294673 -0.00309341
26263 2 47.5991 16.8319 4.98165 0.731122 -0.571484 0.0237404
1718 2 51.4129 17.7276 7.28292 0.483741 -0.0628123 0.244062
26272 2 54.9871 17.3671 5.72935 -2.19633 0.849568 0.843709
1800 2 54.7623 19.4507 5.5048 -0.269544 -2.01869 -0.705012
357 2 58.3555 18.9997 6.58335 1.27918 -3.07997 2.82191
282 2 56.9893 17.5336 6.37456 29.5986 -3.33514 -1.90676
26357 2 60.1455 18.5184 5.76054 -14.3461 8.43675 -4.23386
1729 2 60.0794 19.7618 7.41414 0.709522 1.04444 0.162222
367 1 65.6224 18.9511 5.03875 -0.163953 1.4503 0.116043
296 1 65.7904 17.8586 6.27281 0.716003 0.801219 -0.0913142
291 1 67.2632 18.7916 4.65365 -0.627903 0.812491 -0.448067
1734 1 65.9293 19.4222 6.8325 0.141209 0.701491 0.581857
26287 2 69.4739 16.5855 4.55025 -0.524554 -2.08166 -2.17617
369 2 70.0938 19.1507 5.29302 -0.330567 -1.42066 -0.579869
297 1 71.9754 17.4447 5.98249 -0.887599 -3.46707 -2.47155
26363 1 72.2827 17.1202 80.616 2.68703 1.96215 -2.72298
303 2 79.6781 17.007 5.95656 -0.979575 1.36736 -0.821316
387 2 7.06376 21.6433 7.22927 -0.608349 -1.35555 0.00872171
311 2 8.00074 21.5675 5.42015 -0.803265 -2.32592 -0.945101
26232 2 10.0355 21.7446 5.76321 -1.19861 -0.714063 1.21199
237 2 11.865 20.6259 6.56746 0.0703525 -2.95756 0.145728
313 2 13.3197 22.0653 6.178 -0.0298583 -0.936006 -0.339765
238 2 14.7172 20.5836 6.09089 1.8391 -1.16151 1.23106
26231 1 15.7824 21.5683 5.08422 1.51931 1.69378 0.190539
244 1 17.9781 19.6789 6.19986 -0.457562 1.22391 1.28123
391 1 16.5861 22.1719 6.4167 0.258103 0.478932 0.850214
1761 1 17.5576 21.1544 5.50984 -0.230131 -0.549452 2.42492
319 1 18.6953 20.9566 6.98439 -0.0981691 0.777654 0.942558
1769 1 19.9958 19.903 7.07865 3.35743 0.535705 0.0938126
256 2 25.8167 22.0018 6.41034 -1.36578 0.46859 -0.0137827
26319 2 27.6426 21.0888 5.93051 -0.181722 0.608674 -0.239199
24951 2 29.8004 22.621 5.18306 1.04633 0.566276 0.229377
329 2 29.288 20.6847 4.70096 -0.416712 0.57465 0.936878
1847 2 28.7949 20.1039 7.32344 -0.25523 0.91791 0.019066
333 2 32.6519 20.7715 4.45361 -0.624753 0.0307738 0.101428
1778 2 36.2107 20.2873 6.15467 0.197788 -0.486696 -0.140988
1702 2 36.2435 22.0846 7.15768 1.08689 -0.0734137 -0.379494
1784 2 38.139 19.9355 6.74246 0.674432 0.574897 0.0555294
343 2 40.2352 20.7679 4.81071 -0.0706535 -0.425233 -1.0017
1781 2 40.1713 20.3947 6.81061 0.801142 -2.17753 -4.016
26407 2 39.137 22.4534 4.70477 -0.348191 0.271175 -0.0928267
1786 2 41.1454 22.4935 7.0718 -0.769879 -1.2977 -1.99443
1783 2 42.1843 20.3021 6.97742 1.20549 -1.26951 -1.05448
270 2 45.5414 20.2234 5.64558 -0.447552 -0.520576 -0.150541
356 2 50.2428 19.6975 5.76328 0.936481 -0.261493 0.107269
26419 2 51.2032 21.2554 4.78484 -0.0730805 0.251442 0.0357707
1794 2 51.9121 22.0456 6.5518 0.0667877 0.202143 0.147519
353 2 52.9301 20.1688 4.4748 0.0501121 0.69377 -0.401298
368 1 63.8377 21.4886 6.86812 0.0374531 -0.397244 1.97792
365 1 64.6538 22.1019 5.59315 0.0114525 -0.913975 0.578488
1809 1 65.333 20.6269 5.19672 -0.292698 0.860167 0.633637
363 1 65.7788 21.0996 6.72804 -0.932749 0.156797 0.497868
26360 1 67.4629 21.3263 6.78374 -1.0818 -0.945253 0.163515
1813 1 67.3131 19.8838 5.91689 -0.0755351 0.292035 -0.123129
362 1 66.8885 20.8116 4.55736 0.086766 -0.11905 0.117321
26359 1 67.6276 22.1208 5.30253 0.398127 -0.0459997 -0.571918
371 2 71.0947 21.7044 5.89793 -1.09176 1.10591 -0.377272
1814 1 69.5127 22.4447 6.65228 0.140278 -1.33722 0.168379
1738 2 71.5008 19.8086 6.63795 -0.793485 1.26595 0.872289
1817 2 73.5138 20.0812 6.41217 -2.02417 0.942781 -0.35427
447 2 72.9479 21.5613 5.12482 -0.426099 0.252446 0.547263
26368 2 74.8777 21.6984 4.43826 -0.259002 1.15497 -1.06543
1893 2 75.4425 20.4338 5.96147 -2.02838 -1.57492 -2.92359
1818 2 76.8351 21.1442 7.27758 -1.46387 0.609065 0.169775
1825 2 8.17127 23.3016 6.86035 -1.60005 -1.19748 -1.20796
26375 2 8.27417 24.3939 5.1195 0.47486 0.75321 -2.62782
26308 2 12.2913 23.4149 5.08916 -1.2541 1.89477 -0.328536
26383 2 14.2919 23.884 6.05055 1.97721 1.85796 0.957031
1768 2 16.0601 25.3911 5.92954 0.110702 2.30455 -1.514
314 1 15.8018 23.3714 7.34207 0.233272 1.28369 0.463347
395 2 18.3253 25.7203 5.88967 -0.853292 0.684397 -1.12435
477 2 22.5539 25.3468 6.69126 -1.22026 -0.434118 1.1274
26390 2 22.7628 25.3875 4.65016 -0.874411 -0.99054 -1.03151
26399 2 23.4618 23.4997 6.8835 0.223714 -1.29599 -0.888852
26393 2 24.3827 24.1838 5.13177 0.0407183 0.667163 -0.116222
26397 2 25.5724 25.4728 6.53449 0.390927 -0.0956425 0.0349762
406 2 26.3368 23.8361 5.59776 -0.660715 -0.703096 0.160145
327 2 28.1518 23.0787 6.3338 0.657197 -0.57504 0.442159
1849 2 35.3359 23.367 5.79722 0.0491417 -0.0431239 0.872714
408 2 36.2178 24.9562 6.77202 -0.433132 -0.537156 -0.150743
340 2 37.9703 24.707 5.76175 -0.0982155 0.288873 -0.544773
338 2 39.4344 23.4457 6.47609 0.520481 -0.680373 0.0344013
26413 1 43.5956 24.908 6.70715 -1.84834 0.697068 -1.14583
421 1 46.867 24.6262 6.03537 1.68647 -0.726047 1.06572
26336 1 45.1788 25.343 6.24651 -0.1282 0.62405 1.60832
26411 1 48.4093 24.3509 5.41839 0.709698 0.25002 -0.589188
427 1 49.424 23.3534 6.33887 -0.141981 -0.328268 -0.969338
428 1 49.8804 25.4471 5.14724 0.183413 0.124304 -0.407649
1870 1 49.2664 25.167 7.27395 -0.203957 0.305475 0.578047
1871 1 50.809 24.2335 5.88598 -0.00752014 -0.348946 -0.254529
1873 1 52.3885 23.7514 6.286 0.580242 -0.584707 0.320859
431 1 52.5544 25.3801 6.6841 0.736908 0.653814 -0.435138
3317 1 50.9498 25.3153 7.16979 0.344546 -0.293699 -0.601208
1798 1 54.0889 23.6857 6.16792 0.262839 0.500189 0.29914
26271 1 53.9307 25.309 5.76344 0.31688 0.347878 -0.376769
26423 1 55.75 24.0695 6.23032 -0.192664 0.634134 -0.928906
26499 1 55.213 24.8093 4.80461 0.294355 -0.28692 0.168954
355 1 54.6835 23.1929 4.63599 0.307953 0.447148 -0.0629504
26276 1 56.2085 22.8018 5.23697 -0.18139 -0.0575191 -0.142406
26280 1 62.0771 24.1133 4.73189 -1.14286 0.62378 0.191306
439 1 63.605 24.1722 6.48588 1.03544 0.35065 -0.473951
1806 1 64.5235 22.9687 7.21391 0.343698 -0.836026 0.688315
26351 1 63.4269 23.1991 5.11595 -1.09761 -0.200689 -0.353602
26356 1 62.487 25.276 5.8731 -0.918126 2.07997 0.154037
443 1 68.5514 23.4295 5.68963 -0.28882 -1.64738 0.550353
26435 1 69.1021 24.8531 6.36757 -0.278634 0.460652 0.403996
372 1 70.1588 23.8887 7.27131 -0.834021 -1.56214 -1.19362
26441 2 71.5114 23.1996 4.55538 -0.254301 -0.446778 -1.25447
1821 2 76.2623 23.0311 6.76147 1.86845 -1.38429 -6.58882
376 2 74.9897 23.5917 5.24239 -0.0160961 0.660482 0.638633
26521 2 75.7805 25.4974 5.43574 1.10253 0.0170789 -1.32103
381 1 79.481 23.8771 4.67981 -0.400668 0.856303 2.14189
26372 1 79.1442 23.6419 6.30115 -2.20052 1.89549 2.65789
1897 1 79.0648 24.873 7.40727 0.233646 0.29444 -0.49859
464 2 6.66551 26.5955 5.44302 -0.788422 3.41364 0.796914
26452 2 6.3134 28.4753 4.80818 -0.505142 1.82055 0.432144
307 2 8.50981 26.1646 6.14919 1.69186 0.79821 0.17391
1909 1 10.1466 25.9566 6.77932 0.363268 -1.26679 2.27637
26451 1 10.2559 27.5924 7.20426 -0.368892 -0.679682 0.26607
386 1 11.8666 27.3627 6.66359 1.37139 -0.490709 -1.34931
465 2 12.1921 26.436 4.91591 0.56002 1.28354 1.68744
26384 2 14.1079 25.8416 5.42655 1.94237 1.14163 -0.506025
393 2 15.0405 27.6016 4.84341 -2.38551 1.13988 0.755832
1837 2 16.5414 27.3143 6.33298 -0.35414 -2.48282 -4.59696
1921 2 19.3148 28.2545 5.86103 0.166131 4.54049 1.37627
1839 2 17.8205 28.5398 7.30311 -4.32754 -1.13571 3.97566
399 2 19.8097 26.6256 7.03527 2.16331 -0.92253 0.553684
475 2 21.5021 26.8721 5.83502 -1.59926 0.22698 -1.58358
549 2 21.009 28.5713 4.73038 1.21366 1.81177 -1.65259
1930 1 30.8385 28.4711 5.85673 -0.566771 -1.88497 -0.247846
26475 1 29.9858 27.5292 4.78161 -0.489556 -0.637138 0.214659
1854 2 36.8097 26.1765 4.96861 -0.790016 0.245562 -0.108201
26406 1 38.9779 27.5964 5.57924 0.489567 -0.253745 0.194095
491 1 40.2893 28.0902 4.63372 0.908452 -0.25052 -0.0968386
26563 1 39.6965 28.5211 6.81367 -0.678325 0.412628 -0.0233847
418 1 46.4874 26.2127 5.70505 1.46635 0.233491 -2.27739
26487 2 45.7391 27.8223 6.00562 0.331873 -0.0563017 0.195763
345 1 47.8555 26.8244 4.8983 -1.78856 0.0706753 0.160736
426 1 48.6669 27.9357 5.86185 0.19583 -0.34312 -0.414361
26495 1 49.4931 26.5708 6.37614 0.307301 0.223708 -0.540013
508 2 56.23 28.3142 5.80176 1.27724 2.36877 -0.547099
1949 2 58.2477 28.2678 6.24474 0.768046 0.567983 0.380833
26504 1 59.9282 27.9318 6.41036 1.99915 1.25464 -2.46155
1802 1 61.431 27.2388 6.64112 -2.17544 -1.05986 -0.719461
1878 1 61.0893 26.1309 5.42782 -0.200125 0.473212 2.7553
511 1 59.6408 26.9246 5.13412 -0.969028 0.196085 1.25176
1881 1 62.8746 26.4706 7.04031 -1.96605 0.596109 -0.172962
1962 1 67.4901 27.757 5.22434 -0.934422 0.369657 0.832904
26583 1 66.7444 28.6035 6.48104 -0.155856 0.578153 1.94717
515 1 68.8142 26.4859 6.31642 0.780945 0.480986 -0.289461
26516 1 68.8061 28.0795 6.79707 -0.661109 1.12346 0.900851
456 2 74.207 26.7771 5.41625 -0.340093 -2.0415 -1.0279
1894 2 74.4147 28.7755 4.98084 -1.28497 -0.339934 1.13776
1974 2 76.0361 27.0469 6.71787 1.08 0.39191 -0.698593
450 2 76.2941 27.9232 4.86666 0.0279286 -1.11638 0.490997
459 2 5.569 30.013 5.9132 0.466995 0.151706 -0.0366588
1981 2 7.77158 30.7213 7.50761 -0.528383 -1.46694 -1.11688
466 1 15.2424 31.6719 5.45616 0.252385 2.457 -1.03681
26460 1 15.2385 31.4002 7.1189 -0.856415 -0.788859 -2.27627
469 1 16.3415 30.5165 5.8929 2.99141 -5.07719 -2.40895
1914 1 18.6601 30.9439 6.51977 1.24088 -1.68107 -2.33402
26463 1 17.6497 31.3946 5.25573 -1.87017 3.12474 -0.54218
473 1 17.2901 30.2772 7.24284 -0.111617 1.8088 -0.849589
484 2 28.2536 32.0912 7.13052 1.77076 0.37512 0.899581
559 2 26.6737 32.0412 5.81017 1.31313 0.233632 0.741907
483 1 31.8212 30.4586 7.31647 -1.6542 0.186421 -0.722641
1929 1 31.3639 28.836 7.40423 1.25653 -0.0442784 0.617277
26479 1 31.9017 31.4202 5.72989 0.806995 -1.15441 -0.403878
412 1 31.8895 29.6285 5.19399 -1.17844 0.255698 3.81982
1933 1 33.0416 30.2993 6.18125 -0.754574 0.18388 -0.177403
492 2 34.383 30.533 5.03797 -0.52306 0.314064 -0.675286
488 2 37.0087 31.3209 5.46274 0.139922 0.872142 -1.53817
26632 1 38.3878 29.1454 5.91408 -0.633472 0.0429228 0.27872
1940 2 38.9331 31.465 6.06854 -0.766262 0.204175 0.0302042
1934 1 39.3711 30.1576 4.97917 -0.136325 0.0169357 0.0928821
416 1 40.69 29.3625 5.70331 -0.139308 -0.420218 -0.327403
414 1 41.5723 30.5342 4.83799 -0.722031 0.157986 -0.15818
1941 2 44.5918 31.652 7.14559 0.194729 1.61646 0.529817
502 2 44.6485 29.4272 6.74567 0.135623 0.316633 0.861869
1945 2 44.6008 28.9782 4.73226 0.155472 -0.170031 0.682469
498 1 48.4561 30.5953 4.85818 -0.174772 0.62571 -0.20156
26490 1 48.9959 30.3284 6.39077 -0.253541 -1.07809 -0.0375683
503 1 49.2525 28.8422 7.1565 0.434078 -0.331925 0.0211669
26571 1 52.3795 31.3026 6.33401 0.588602 -1.0615 -0.168042
1946 2 52.5547 29.9514 5.43389 0.818521 -0.044242 0.212475
436 2 54.378 29.1137 5.59731 0.813448 -0.0972978 -0.719277
587 2 61.4359 31.3828 4.76376 -0.587289 -0.247779 -0.98019
1958 2 65.7555 30.8739 6.4883 0.784954 1.88789 0.600548
520 1 65.9502 29.5452 5.3171 1.20944 0.954041 0.991767
26515 1 67.3696 30.3045 4.79886 -0.188401 0.900423 -0.0801605
522 1 68.143 29.3844 5.99479 -0.605417 -1.0114 -0.129001
514 1 69.5212 29.6637 5.05091 0.00604076 -1.04371 -1.23282
1965 2 72.0319 30.5505 6.46981 -0.797459 -1.71102 -1.96144
1971 2 73.593 31.6145 7.29796 -0.796287 -0.845353 -2.48104
26527 2 5.50359 32.0813 6.09838 -0.472585 -0.177432 -0.233246
536 2 5.59021 33.7473 7.3606 0.109963 1.20597 -0.19323
534 2 7.56838 32.0958 5.95266 0.713208 -0.45216 0.329576
26532 1 9.33857 32.1485 5.68605 -1.21875 -2.2163 -2.98874
535 2 7.68186 33.7969 7.13879 0.644663 -0.227529 -0.346259
26531 1 10.9337 32.3142 6.06053 0.0509048 -2.45219 2.05913
539 1 12.4118 32.7665 6.64667 -3.47174 -0.182364 2.42675
544 1 13.3489 33.9826 5.9967 -2.54871 -1.47695 0.0353339
538 1 11.3354 31.7956 4.52791 0.902925 3.83262 0.0277644
468 1 15.7887 33.2726 5.59626 0.214771 0.317374 0.906838
543 1 14.7095 33.5426 6.87747 -0.919527 0.498471 -2.09978
542 1 15.7898 34.7366 4.6958 1.40308 2.11554 0.474362
548 1 16.8833 34.2316 6.82441 1.01657 -0.0380007 0.888812
547 1 18.4021 32.4518 7.22928 0.220151 -2.1006 -3.02455
2065 1 17.4074 32.9166 5.93979 0.594967 0.454073 -3.22268
471 2 20.6213 32.0513 4.9329 1.54633 1.02318 -0.473359
476 2 20.0921 32.8823 6.7662 2.18709 1.29312 -0.354302
551 2 22.3836 32.8678 6.89707 0.139769 1.60031 0.704811
26543 2 22.6498 32.5053 4.89431 -2.21787 -1.91726 -1.03118
556 2 24.3424 32.3732 7.21791 -0.316841 0.774907 2.03556
554 2 24.6987 32.1885 5.17935 -0.616676 -1.9557 0.969485
552 2 23.5412 34.4883 7.28639 0.569309 -0.353301 1.39377
26480 1 31.1124 32.9079 5.91585 1.03349 0.186708 -0.0326385
26631 1 30.3395 34.3943 5.68603 0.306758 -0.123152 -2.67056
1926 1 30.164 32.318 7.19875 1.29752 0.215317 -0.676522
26552 1 29.6866 34.5346 7.24057 -1.57532 0.686747 -1.58515
2009 1 31.9975 33.4638 4.58382 -1.71152 1.00319 0.304244
486 2 35.2028 32.2994 5.67548 0.281823 1.57077 -1.31314
2006 2 35.985 33.9715 6.67999 0.00920797 -0.739782 1.05256
26557 2 36.2757 34.7937 4.78932 1.19667 0.317451 0.0203852
26559 2 37.9037 33.191 6.44431 -0.0874964 0.284201 0.776139
2013 2 40.5141 34.4338 7.35132 -0.980157 -0.427519 -1.46499
25191 2 38.3134 34.6931 5.08371 0.411964 -0.554626 0.143815
26488 1 42.1326 32.1107 5.09708 -0.524317 -0.620179 -0.0561147
1939 2 43.1741 33.0842 6.56938 1.47299 3.85991 -0.604192
570 2 44.6672 34.4623 6.17165 -0.696217 1.49685 0.706456
574 1 46.6756 34.3453 4.95454 -0.548306 0.0838267 0.150159
26645 1 45.081 34.078 4.55188 -0.451361 0.230082 -0.127901
26491 1 48.649 31.9864 5.72224 -0.560239 -0.330334 0.000978073
26569 1 47.2712 34.1235 6.51074 0.435177 0.739392 -0.266677
573 1 48.3253 33.5062 5.07992 -0.246033 -0.747726 -0.402146
26568 1 48.9422 34.2643 6.43629 0.40013 -0.714253 -0.106378
499 1 49.3864 32.7445 7.04695 0.100677 -0.0612838 -0.255733
26496 1 51.7265 32.6253 7.12039 -0.914022 0.570973 -0.454268
2022 1 52.5964 33.5954 6.03246 1.16265 0.465785 -0.412004
655 1 52.7834 34.6603 4.74063 1.11581 0.388332 -0.705281
26567 1 50.5272 34.7955 6.68703 0.183011 -0.477754 -0.0374287
578 1 53.7063 32.3038 6.08165 0.612675 -0.902369 -0.793676
2025 1 53.4998 34.6013 7.0632 0.0912106 0.841972 0.989138
660 1 54.6296 33.2895 5.04647 -0.28394 0.759561 0.830932
26580 1 55.5618 32.6698 6.27539 0.104623 -0.443428 -0.327874
585 1 55.6946 34.6161 4.8754 0.548278 2.15317 -1.15084
577 1 54.8546 33.653 7.44566 0.222249 -0.829493 0.200673
581 1 56.6366 33.9766 6.17529 0.670785 0.0676955 0.473895
1954 1 57.7583 33.5423 7.37136 -0.764035 -1.24907 0.996933
2037 2 59.5235 32.0294 5.21463 -0.996422 -0.136099 -0.520474
592 2 62.0166 33.2173 5.51977 2.42638 1.75242 0.331163
1964 2 60.4024 33.0567 6.79582 -0.621593 0.754724 -0.870466
26584 2 64.5147 32.0627 5.38302 3.38639 -2.14987 -2.96502
1957 2 63.2639 32.4599 6.98553 0.274677 -0.668038 -0.0607412
2041 2 71.0461 34.1271 4.67888 -0.886713 0.133835 -0.14325
600 2 70.0767 34.5857 6.45513 0.650038 -0.587366 0.0843451
26591 2 70.6504 32.7665 7.18687 -0.454997 1.73747 -0.746766
524 2 71.4946 32.1821 5.36592 -0.352944 0.726115 0.0868659
528 2 73.45 32.8041 5.62742 -0.108585 -1.65351 -1.03746
678 2 73.6114 34.3588 7.02858 -0.256645 -1.77672 0.123853
2045 2 75.4388 32.5848 5.22304 2.01313 1.02101 1.80968
26519 2 75.5085 32.4519 7.29971 -0.584106 -3.34232 1.52637
684 2 75.6928 34.5069 7.0291 0.870483 -1.61772 0.383527
26671 2 75.4444 34.6427 4.95516 0.287284 0.782972 -0.56044
2049 2 79.6895 32.363 6.09746 -1.86089 0.854822 1.01618
1977 1 79.263 33.1039 4.56365 -0.247537 0.777257 1.78558
2046 2 79.7754 34.0665 7.28447 2.14968 0.645925 1.24316
26676 2 77.7437 34.5362 7.30942 1.54097 1.442 1.2161
692 2 6.79743 37.9062 4.68636 0.462504 -1.12914 0.822819
26608 2 8.2164 37.1037 5.88187 1.6222 -1.6577 1.02138
620 2 13.1267 37.1431 6.08931 -0.0632768 0.150244 0.657631
2057 2 11.0562 37.3681 6.01078 1.56212 1.23254 2.17158
1990 1 14.345 35.1952 5.40135 0.528503 0.659419 -1.39864
2062 1 15.9901 35.4871 6.19757 -0.993658 -0.206653 -1.30745
619 1 14.8105 36.6363 6.10473 -2.17339 -1.10402 -3.09166
2069 2 21.4466 36.9307 5.35804 -0.0199483 -0.828942 -0.513085
2070 2 23.2526 37.582 4.68165 -0.196949 0.798797 0.0569548
631 2 23.3978 35.9006 5.8048 0.925495 -0.194204 0.34367
2005 1 29.6416 35.7912 5.05649 0.543197 -1.21192 -2.08597
26627 1 29.9645 36.0851 6.69908 -1.65534 2.72674 0.745937
2233 1 31.5105 35.5075 6.22869 0.475159 0.0680614 2.53261
561 1 32.2918 35.1442 4.7425 0.562297 -0.983451 -2.31212
640 2 32.7786 36.7472 7.18633 0.0670774 0.659922 0.03381
639 2 36.0605 35.9075 7.46591 -0.674315 -1.40175 1.33881
566 2 40.2294 35.3267 5.47793 0.376387 -1.68186 0.158459
642 2 40.1498 37.3959 5.29204 -0.100569 -1.98285 -1.20402
646 2 43.6034 37.7176 5.17792 -2.65554 -1.28198 -0.779556
26639 2 45.1152 36.4351 5.81073 -0.456296 0.430218 -2.70693
651 1 52.0389 35.4773 7.0744 0.0676887 0.617886 -1.2876
2098 1 52.1718 36.0376 5.49091 -0.973601 0.178146 -0.71431
2094 1 50.5168 35.8242 5.3459 -0.477702 -0.0418414 1.27348
656 1 52.958 36.8092 7.52146 0.476292 0.762854 -1.33777
653 1 53.5964 36.7906 5.99352 0.250716 0.682244 -0.556933