ITEM: TIMESTEP
110000
ITEM: NUMBER OF ATOMS
27436
ITEM: BOX BOUNDS pp pp pp
4.3380609017513905e+00 8.0661939098249150e+01
4.3380609017513905e+00 8.0661939098249150e+01
4.3380609017513905e+00 8.0661939098249150e+01
ITEM: ATOMS id type x y z vx vy vz
25996 2 4.88358 5.67635 4.91473 -2.84447 1.08205 0.822329
1372 2 5.25028 4.60564 6.60828 0.318788 1.86537 0.89003
25999 2 13.5498 5.6596 4.58219 -15.9957 6.67414 -1.82295
12 2 12.7429 4.51839 6.23213 -10.6242 -3.73598 -11.2493
1454 2 14.7384 6.91017 6.28475 -1.69747 16.4563 2.5802
10 2 16.376 4.79253 4.43663 -4.76292 2.30338 -0.294481
11 2 14.4296 4.87279 7.34206 18.2207 19.5841 -14.5313
1458 2 16.9658 5.2493 6.66102 -10.4361 1.83164 2.14703
89 2 16.7884 6.73551 5.15053 3.28155 0.363202 14.1486
19 2 20.8555 6.68864 7.45299 -6.73302 0.733506 5.10312
94 2 22.2605 6.17611 5.90955 -12.4735 -0.0662753 0.986935
1537 1 23.9815 6.50361 6.88972 0.140971 -0.218375 2.80294
1469 1 25.5779 5.89946 6.91452 0.233691 -1.15713 -3.23409
27 2 30.8844 4.92386 4.57521 0.727794 2.04718 -0.927272
31 2 32.569 5.67047 6.63733 2.16648 -0.874049 0.862203
29 2 32.9242 6.63134 4.81682 -0.8601 -0.198324 -1.32208
1398 2 32.8921 4.65882 80.6202 -0.988229 1.60508 -0.858095
1481 1 38.941 6.10054 6.78685 -2.44456 1.79877 0.622988
26028 1 38.9781 5.06194 5.41343 1.16666 -1.16448 1.88571
26107 1 40.4312 6.71117 6.2666 0.624269 -3.6321 -1.03289
1482 1 40.6411 5.08512 5.83221 -0.851681 -0.869051 -2.28881
44 1 42.3121 5.44165 5.86768 3.61166 -1.01574 0.1165
115 1 43.6503 5.48925 4.94477 1.72879 0.786062 0.139952
26032 1 41.6592 6.7827 5.09392 0.339465 -1.27034 1.19541
1412 2 44.8119 5.37938 6.10023 0.18633 0.489183 0.760318
1410 2 46.6755 5.61337 5.2979 -0.306475 1.2491 -0.199873
43 2 47.2318 5.54634 7.27483 -2.14383 -0.887293 1.13363
1420 1 54.9063 5.48817 7.23035 -0.441172 -0.857166 1.40071
27416 1 56.4594 6.08035 6.84559 -0.0170774 0.0277502 -1.08303
53 1 58.0403 6.54634 6.63272 0.544359 -0.396902 -0.559505
60 2 62.4341 5.29301 6.76677 0.751349 1.03653 0.688344
1425 2 62.4221 4.7374 4.77378 1.2428 -0.200898 -0.113543
1502 2 62.3756 7.28592 6.19435 0.249611 0.698921 0.45635
1423 2 59.5554 4.66767 4.44846 0.788643 -0.894723 -0.200704
26127 2 62.9859 6.69194 80.6121 -0.670187 -0.208696 -0.499799
27420 1 68.0801 5.7553 5.46013 -0.234583 -0.0146451 -0.464247
133 1 66.5534 5.10681 5.08484 -0.203691 -0.0193476 0.647641
26055 1 67.9228 4.81915 7.04113 -0.520368 -0.000204153 -0.376722
1430 1 66.2971 5.13275 6.75221 -0.498898 0.187885 0.538817
1436 1 69.0516 6.80661 6.39044 -0.640567 -0.782579 -0.439787
67 2 73.6244 5.50698 6.13589 -0.0711459 0.69184 0.296793
72 2 75.636 5.9244 6.25145 0.0701082 -0.725287 -0.50241
1448 1 77.3169 5.76271 6.13541 2.14976 1.44118 -1.07996
75 1 77.3923 4.54462 4.96586 1.34615 0.710901 -2.73757
76 1 79.0072 5.59979 5.9194 -0.439884 0.989065 0.448164
4 1 80.1771 6.82105 5.69522 -0.636436 0.314239 -0.435375
79 1 6.94706 8.82728 6.13281 -2.48487 0.838213 5.40245
1522 1 5.49684 9.05858 6.86726 0.444838 0.455158 -1.66761
1521 1 5.05536 7.98543 5.70718 0.619211 1.4777 -4.94325
81 1 6.29876 8.10464 4.57794 0.413998 1.33455 1.93367
26071 1 7.75122 7.70874 5.17477 -2.79683 -1.46103 -0.0298326
1525 1 9.10963 9.29213 6.4537 -2.34906 4.61471 0.828323
26075 1 9.08641 8.69423 4.84448 3.62525 0.937116 -5.77706
227 1 7.75833 9.58293 7.42026 -6.44401 -3.63459 -0.112987
1529 1 10.4724 9.73021 4.76706 -2.50279 1.05991 -7.64124
87 1 12.8136 9.67501 5.48942 0.55694 -4.64458 5.46397
1527 1 11.2486 9.38838 6.25353 10.4114 0.540907 -4.24443
26004 1 11.9532 10.1524 80.3661 2.97807 -13.8693 21.8418
1533 2 15.1234 9.19268 6.56508 9.18886 -12.2759 6.46057
1457 1 14.4168 10.0333 5.05857 -18.6298 3.99671 -7.78373
26008 2 18.0774 8.3183 5.44229 11.1558 -5.44025 -11.8598
96 2 19.0231 8.76918 7.1019 1.00604 -4.54008 4.44623
1468 2 21.0322 8.67159 6.76528 -9.16281 -1.52642 -8.90753
26088 2 21.484 8.82186 4.76522 -4.39594 -0.417343 -1.90354
1538 1 23.4311 8.02093 7.46591 -1.30132 -3.04592 -3.88878
22 1 24.6953 10.2529 6.00531 3.42436 -0.0741116 -1.02406
99 1 24.9002 8.73244 7.03695 -2.95724 3.68102 -5.21633
97 1 23.1434 10.2382 5.35863 -7.71797 -11.0165 -0.858337
26091 1 26.144 9.44883 6.18158 -0.66229 0.44255 -0.836737
104 1 27.4286 8.87398 5.32776 -1.94607 0.240366 -3.02061
30 2 33.2011 8.52559 5.53327 -2.88788 -0.605963 -1.67479
1625 2 33.2246 10.3134 6.5444 0.323634 0.64681 0.647467
26104 2 34.8305 9.31233 4.45858 -2.21302 -0.316598 1.79954
32 2 34.6327 7.74751 6.80879 -1.38503 2.24118 -1.34759
107 2 36.5377 7.72228 7.5301 -2.47942 -2.21864 1.24763
1550 1 36.6069 9.20852 80.3887 4.0515 4.06394 0.495935
1629 2 35.2692 10.3439 6.17594 -1.30442 0.880205 1.15957
108 1 38.0161 10.0022 4.57382 -1.95479 1.57281 0.980284
40 2 40.9704 8.21894 6.80255 1.91773 2.84036 1.66178
118 1 48.5275 10.3685 4.8532 0.18695 1.46584 0.815842
128 2 51.3771 8.48524 6.72283 1.24587 -1.31625 -0.0289661
26115 2 53.1725 7.87003 5.98345 -0.380201 -2.64946 2.3393
122 2 53.8858 9.79503 6.15765 0.516594 -0.55759 2.12484
126 2 55.7193 8.98179 5.59298 -0.169044 0.156981 -0.618872
26195 2 54.5581 7.65697 4.48133 -2.62521 -1.81871 1.38984
26045 1 57.4854 8.08743 6.32842 0.252581 0.65644 0.195568
26048 1 58.7742 8.0753 7.39305 0.0613971 0.392198 0.106315
140 2 62.3223 9.23675 5.52008 -0.199116 0.452366 0.611507
64 2 62.9776 9.95396 7.34439 0.961882 -0.404327 -0.0928416
26131 1 69.808 9.38535 4.51722 0.707097 -0.313131 -0.114716
68 1 69.4179 7.85958 5.12537 0.909013 -0.33042 0.563269
26060 1 70.0962 9.01616 6.13872 0.000876437 -0.230968 0.0385513
69 2 73.3697 7.41635 5.38334 0.565617 0.572871 0.250564
145 2 75.7395 9.26378 6.20802 0.312729 0.277586 0.0836892
147 2 74.869 8.5701 4.50204 0.00251311 0.174528 0.399333
150 2 77.7134 9.87911 6.26071 1.17109 -2.98152 -1.07541
74 2 78.8344 8.12048 5.99404 -3.0502 -0.676632 -0.348347
8 1 9.49362 10.7914 5.7799 4.42456 0.443437 -2.72889
83 1 10.1747 12.2791 6.09259 5.05609 -9.47778 -1.24967
1456 1 11.1156 11.0233 6.59033 -3.29379 5.22172 0.358029
1526 1 12.4978 11.3174 5.77003 -6.33505 7.10627 -13.809
1605 2 12.8907 12.8649 6.5171 -6.55357 5.48106 2.8062
26080 1 13.311 11.132 4.24325 0.668289 0.538737 -9.36129
100 1 21.679 12.0977 4.60598 -8.07138 3.32936 -6.43459
26087 1 21.6373 10.4183 4.69828 1.25655 -2.39515 -0.397423
24 1 23.1406 11.9293 5.29838 1.86317 9.25227 2.18392
95 1 24.5859 12.0232 5.98204 6.48317 4.87878 6.85334
26167 1 23.7619 13.4919 6.02036 0.350007 7.52068 -3.554
26096 1 28.2885 12.7378 79.8819 -5.49307 2.23041 0.634218
26095 2 27.054 11.4256 79.0243 0.830544 -1.40456 -0.0869124
181 1 29.1384 12.6413 5.21353 -5.93935 -2.30194 -16.4626
26176 1 30.1845 13.6115 80.5002 0.118521 -10.7014 -8.23289
112 2 32.432 11.3265 4.93396 1.19804 -0.169443 2.24554
184 2 32.9861 12.9854 6.08197 -1.55554 -3.50416 5.16896
185 2 34.8836 12.268 5.58087 -2.59374 -2.50808 -0.836864
26180 1 36.9245 12.9552 6.06881 0.418784 -0.844422 -0.619489
26179 1 38.021 13.4027 4.91051 -0.822821 -0.566684 0.730811
187 1 38.8581 12.2337 6.25446 -1.16069 0.248437 0.370239
26108 1 38.8303 11.9597 4.59174 -1.18732 0.138724 1.08483
34 2 42.8183 11.461 5.05404 0.0433877 2.3832 -1.03871
116 2 42.3989 11.7467 7.04601 -0.268501 -0.547565 0.25647
26116 1 46.935 10.7457 4.98837 0.939419 -1.03852 -0.0478609
195 1 45.9882 11.6255 6.05341 0.8257 1.61081 -1.00844
1562 1 45.0996 12.5576 7.20708 1.39376 1.46513 -1.65974
114 1 45.1104 11.0813 4.71981 0.690738 1.99876 -0.948712
26111 1 48.06 10.5273 6.43694 -0.756691 -2.14716 0.152974
26188 1 47.3064 11.8588 7.12906 0.386918 -0.432244 0.766416
26114 2 51.9189 10.4735 6.43353 0.331063 -2.21521 -2.74391
121 2 51.1163 12.5598 4.69551 -0.565464 0.285262 1.5674
124 2 51.975 12.585 6.58297 -0.66178 1.77035 -0.925405
197 2 51.4106 10.5195 4.37656 1.83043 1.90502 -0.350025
26199 1 58.595 12.4622 5.88017 0.0431561 -1.16733 0.537018
1721 1 57.7799 12.9488 4.49271 0.376994 0.323902 0.880052
1651 1 57.2376 12.6774 6.86573 -0.822456 -0.67675 0.232325
208 1 59.8001 11.8643 4.88259 -0.213258 0.545209 0.0986459
1654 1 60.814 11.7574 6.19959 0.410187 -0.206831 0.0970437
1657 1 59.5837 12.3197 7.24642 1.16482 -0.0198376 -0.966085
136 2 62.3973 11.2001 4.89483 0.623443 0.086028 0.453399
217 2 66.3393 10.9917 4.48399 -0.407903 -0.777743 0.660018
26212 2 66.9334 11.7919 6.25091 0.279525 -0.168446 0.691982
26132 2 66.2782 13.2332 4.95918 0.132212 0.416936 -0.348206
1590 1 73.6047 11.9972 4.64361 0.701549 -0.00548644 0.342484
223 1 72.0118 11.4607 4.46332 -0.655877 0.39907 0.93917
1666 2 77.2157 10.6467 4.38977 -0.00849123 0.595167 0.896686
152 2 79.292 12.8312 5.50142 -0.0205869 -0.72904 -0.759747
155 2 4.7227 13.6429 4.7889 -0.23317 -1.53022 0.917807
228 2 4.8845 14.6131 6.62473 0.960389 0.886457 0.856287
26147 2 5.96386 16.0865 5.63753 0.851894 0.380487 0.151579
1602 1 10.2139 15.1481 7.59341 -0.459234 1.62335 -2.45533
163 1 10.7841 13.8341 6.43875 4.63095 1.84324 3.12015
162 2 12.0205 13.7594 4.9876 0.0805898 -0.981792 -3.6242
88 2 13.4024 14.9325 5.89287 -3.2367 -2.31634 1.60387
1611 2 15.2863 15.1491 5.26816 -6.48456 2.05067 -1.74554
168 2 14.4585 16.204 7.08997 -0.379564 -0.593783 4.26012
92 1 15.6261 13.9252 4.31082 8.41405 6.30202 -1.57645
243 2 16.4809 14.9782 6.80036 7.80493 5.51337 -0.767914
26235 2 18.027 16.1963 6.43608 -1.8715 -2.48253 0.937491
1614 1 21.3559 13.7804 4.98904 3.13009 -2.76085 -0.882305
1613 1 21.1586 14.6194 6.46438 -2.177 -2.516 2.06302
26239 1 22.0967 15.9275 6.01776 -1.40746 -3.28407 -3.0759
26168 1 22.221 15.7474 4.40548 -1.2153 2.6912 1.89682
26163 1 22.9878 14.2914 4.76403 -1.23304 -0.0411576 3.30503
174 1 20.7112 15.0361 80.3826 -3.59465 0.757072 -1.20573
26171 1 28.3334 14.2274 5.52589 0.359127 2.72347 7.6693
178 1 28.5828 14.3862 80.1982 0.289046 2.91281 8.05305
255 1 30.7682 14.8541 5.1993 1.66158 2.98234 -2.79394
1697 1 29.6441 14.7587 6.41817 -9.14321 -3.64344 -3.35053
1701 1 31.813 14.646 6.48333 5.86249 5.3039 -1.35938
1630 1 37.3434 14.3943 6.76901 -1.10809 -0.333799 0.150752
264 1 37.4459 15.6042 5.56199 -0.445037 -1.2378 -0.849234
335 1 36.8163 16.664 6.67384 3.52689 -2.25662 1.34702
1631 1 38.8958 13.9176 6.2837 0.386458 0.125412 0.202151
1636 1 40.3066 15.8259 7.28375 -0.296449 0.113597 2.93505
1706 1 38.9422 15.6151 6.34387 0.860173 -1.89997 2.06235
192 2 43.2031 15.6736 6.48443 -0.0335267 6.02194 -0.903937
193 2 44.3723 14.9901 4.90866 -1.23472 4.83749 -1.10706
196 2 48.8051 16.4059 4.82475 2.90365 1.49357 -0.368824
275 2 50.3311 15.388 5.74174 -29.8721 -21.5878 37.4517
1642 2 51.4327 14.5438 7.10972 2.90824 0.733196 -0.557648
203 1 56.9574 14.2501 5.21105 -0.577206 -0.129824 -0.311027
207 1 57.4113 14.3422 6.80634 -0.624951 -0.121886 -1.3714
287 2 62.3401 16.0041 4.67993 -1.30246 -1.39041 0.0755285
1733 2 64.2295 15.2152 5.65716 0.18491 2.73222 1.29474
1661 2 66.1681 14.8374 6.3079 1.37336 -0.0164056 -0.00951896
1737 2 68.1461 15.5029 6.1391 0.472057 1.48595 -1.03321
295 2 69.0943 13.6694 5.84412 0.600893 -0.0691215 -0.694584
218 2 70.6106 14.868 5.08716 0.884508 0.140703 -0.613336
224 2 71.0955 15.7263 6.91351 -0.705063 -0.495499 -1.40348
148 1 74.0368 13.7965 4.58909 -0.0349918 0.10664 1.39075
373 1 74.0443 16.2307 5.18706 1.0716 0.720576 0.549539
300 1 74.8297 14.8387 5.67115 1.0196 0.208132 0.413149
1742 1 75.6938 16.2709 4.85687 0.231066 -0.189956 -0.761225
232 1 77.3712 16.1098 4.82469 0.612883 0.677445 -0.0282669
1741 1 75.0059 15.3926 7.24941 0.390502 -0.793742 0.434025
305 2 79.1508 14.6275 6.47228 1.13099 0.614362 0.123735
1819 2 79.1453 16.1773 4.82091 0.422019 -0.577218 0.498479
226 2 4.93729 17.2593 6.99387 -1.82242 -0.161295 -0.0594134
158 1 7.01318 17.4062 4.72569 2.91722 -0.592736 -1.07577
1674 1 7.35856 18.8457 5.56771 0.880764 0.0387229 0.153929
1681 1 9.89763 16.7492 7.17128 1.05025 -1.07128 0.0235013
231 1 8.58486 16.8285 4.88239 1.99117 -0.00351163 0.500504
1753 1 7.88957 17.9544 6.91045 0.285312 0.862074 0.913732
1746 1 9.32319 17.8273 6.01945 1.07046 -1.23176 1.14494
236 1 8.94642 19.1078 5.00902 0.00718892 0.777598 0.0407527
240 2 12.1502 19.2671 6.13972 1.16179 0.281761 -0.177426
235 2 11.5863 17.4536 6.89359 0.227141 -0.616129 -1.51667
26312 1 17.4326 18.683 4.98351 0.000337717 -0.374171 -1.14133
26237 1 18.6564 17.5345 5.20299 -1.5069 0.466538 1.42044
244 1 17.8168 19.4143 6.46911 0.403441 1.77216 -1.39221
26311 1 19.3209 18.6786 6.30015 -1.54291 0.837584 0.734593
252 1 21.0492 17.013 6.77202 -0.609845 5.7344 7.05061
397 1 20.8943 18.3803 5.7626 -1.89501 -4.13773 -6.47461
251 2 27.0367 19.2701 7.34575 -1.14748 2.18078 -0.333053
331 2 28.775 18.7769 5.23393 0.0180517 -1.94959 1.78783
260 2 29.7124 17.2664 80.5451 -3.13135 -1.51158 -0.991619
339 1 33.9357 19.1536 6.27836 -2.97123 -2.16493 -1.32023
411 1 34.6219 18.4436 4.89802 1.23499 -1.97763 -1.53026
1857 1 36.4821 16.7995 4.85333 -0.196989 1.09793 2.58724
26327 1 35.6215 17.633 6.03746 -2.51543 -2.26154 -0.424259
341 2 43.0469 17.6074 5.97095 -9.92892 -2.53513 6.23988
268 2 41.8894 19.1268 6.6332 7.18825 9.2514 -8.28831
194 2 45.6849 18.3632 4.90741 -4.09654 -1.9175 1.79304
1638 2 48.779 17.567 6.55739 -0.952815 0.884759 -1.57082
356 2 48.7077 19.564 7.0287 -2.6111 1.0814 -1.34782
1718 2 50.7851 17.1723 6.73071 -0.341553 2.51804 -0.948697
280 2 53.7161 18.0365 5.94604 -0.784138 2.84867 -0.0145551
26272 2 55.7252 18.5708 5.738 -0.351942 1.5073 1.42251
26353 2 58.7145 18.6487 4.76725 -2.46413 -0.671206 -2.85379
367 1 65.6082 19.3068 5.31426 -1.98472 -1.21122 -1.2984
296 1 66.0911 18.1574 6.42777 1.05996 -0.548259 -2.02113
291 1 67.2328 19.5316 4.93027 -0.0994846 0.55944 -1.2563
26287 2 69.5256 16.6275 5.01678 0.318903 1.11252 0.301771
369 2 71.4104 19.4447 5.44087 1.10264 -1.55401 -6.37537
26291 1 73.8118 16.4972 6.84942 0.161659 -0.742023 0.217607
297 1 72.2756 17.1245 6.52008 -0.578442 -1.33436 1.44897
26363 1 72.533 16.8968 4.87365 0.208565 0.294333 2.26754
303 2 79.2884 16.6366 6.80079 -0.917847 0.412139 -0.352441
387 2 6.80681 21.5578 7.20481 -0.819584 1.80991 -1.75982
26232 2 10.0663 22.6238 5.41173 1.10189 1.10903 -1.44923
311 2 8.2178 21.6508 5.64273 0.829573 0.420436 0.470704
237 2 11.2574 21.1314 6.21212 -0.302387 0.132178 -0.897366
313 2 12.6485 22.0513 4.95741 -0.223349 -0.0925561 -3.6186
238 2 13.5769 20.2066 4.989 1.31195 0.981253 -0.815661
391 1 15.6117 21.8361 6.48942 -0.661779 2.60472 -0.558917
26231 1 15.1269 21.1664 5.01007 -0.456294 0.152593 -2.19735
26236 1 16.2713 19.9465 4.85164 1.54901 1.83094 0.36768
1761 1 16.4854 20.4281 6.45635 -0.522775 -1.32799 0.561652
400 1 21.3391 19.38 7.07351 -1.71587 -8.44291 3.80571
1769 1 19.7799 19.8861 7.41709 -0.139264 1.96745 0.578944
328 2 24.6629 21.2345 6.71663 0.718489 -2.15067 -0.350187
1762 2 23.016 20.1362 7.15138 -1.19063 -2.95867 -2.72501
256 2 26.1632 21.8094 5.45359 -0.195646 0.239475 1.6682
26319 2 27.7045 20.445 5.80577 1.56806 -0.810946 -2.80973
24951 2 28.9353 21.5816 4.52498 -0.663166 2.53192 3.44394
326 2 30.979 22.0351 4.52008 -0.921149 2.5464 -0.348191
26328 2 32.8943 22.5135 4.84432 1.66581 0.359306 -1.05822
1778 2 35.3323 20.3323 6.22349 -0.0462093 0.725155 -1.73311
343 2 38.97 20.6798 6.14806 -0.624938 -0.498219 -0.566677
26407 2 38.4857 22.2822 4.9621 -0.715848 0.132947 -0.197462
1786 2 40.0738 21.989 7.34963 -2.27701 -0.516611 0.62584
1714 2 45.829 20.4323 4.53189 6.45318 0.101178 14.871
26419 2 49.7593 20.2448 5.39706 -0.899608 -0.641183 0.451686
353 2 51.5801 20.2696 4.39957 -0.930804 -2.02787 -0.547798
1800 2 52.218 19.7577 6.3041 1.79043 -1.9385 0.620577
1794 2 50.9009 21.3049 6.77983 0.249967 -0.646122 -1.36313
355 1 53.7871 21.6501 4.43118 -1.28695 0.152844 -1.33009
357 2 57.4885 19.7091 5.98659 -0.616158 -0.296189 -0.359532
26357 2 59.2361 20.6633 5.5977 -0.806115 -3.73515 -0.151719
1729 2 60.4108 19.9603 7.16404 -1.25873 -0.956406 -0.94949
1805 1 62.3011 19.922 7.43049 2.47664 0.419392 0.452341
368 1 63.7304 22.1836 6.68423 -1.31518 -0.649167 0.896404
365 1 64.4392 22.4773 5.22797 -0.153942 0.369481 -1.86308
1809 1 65.0957 20.9165 5.24975 -0.757333 -0.22146 0.0154824
1730 1 63.8074 20.6192 7.26466 1.14864 1.70708 0.210075
363 1 65.3387 21.2057 6.89585 -3.02031 1.8089 -0.410451
1734 1 66.1016 19.683 7.09159 2.43116 1.68553 -2.14621
26360 1 66.916 21.8656 6.64486 1.02094 -0.737188 0.989544
26359 1 67.1436 22.2515 4.98786 -1.44594 -1.19341 -1.56498
1813 1 67.5244 20.3044 6.41793 1.18157 -0.0520818 -3.6672
1810 1 68.5525 22.4124 6.8516 0.805757 -0.521458 1.09375
1814 1 69.0422 20.9657 6.05934 1.54522 -2.05506 1.59943
371 2 70.7633 21.3572 5.55041 2.30246 -3.6895 2.01551
366 1 68.4976 21.3941 4.52238 0.190597 4.64596 -1.677
1738 2 72.1881 19.1732 7.25101 4.77424 5.38991 0.291555
1817 2 73.611 19.7585 5.8527 -2.55505 1.46925 2.23881
447 2 72.6405 21.6016 4.82265 1.9188 1.05068 -0.126877
1893 2 75.1563 20.9076 5.0047 0.848676 -8.27175 1.73442
1825 2 7.08748 23.6135 7.19182 0.000587917 -2.40683 -1.85898
26375 2 7.85247 23.6657 5.28847 -1.17663 -0.53034 0.782511
307 2 7.91709 25.7256 5.3017 0.559165 -0.99074 0.714255
26308 2 11.7411 23.8779 5.26605 2.52196 -0.0698183 3.04038
26384 2 13.1802 25.3504 5.23287 0.984185 -0.0847496 0.147085
26383 2 14.7245 24.2615 6.05017 -0.866883 -0.96465 -0.657735
314 1 15.3906 23.2069 7.46655 0.244683 -0.164301 0.272025
1768 2 16.7615 24.3349 6.01835 -0.698476 -0.329797 -0.672744
395 2 18.8051 24.6419 5.76571 -2.15583 -0.813151 1.31405
477 2 22.2062 24.4878 6.07442 0.483934 0.338425 -0.111878
26399 2 23.3974 22.7954 6.21874 0.715467 1.83239 -0.0401636
26397 2 24.8867 25.1723 5.76989 -0.69144 0.91677 -0.360125
26393 2 24.1716 23.7289 4.49579 -0.955818 0.234301 -0.323011
406 2 26.2219 23.7116 4.62901 0.185891 1.85702 -2.56822
325 2 27.2326 22.7425 6.94479 0.420624 0.558725 -2.40887
327 2 28.1863 23.3819 5.20612 -0.492857 2.45629 -1.28459
1849 2 34.7122 23.2817 5.52209 -1.2621 -1.86635 0.448854
340 2 37.4782 24.8516 5.86208 -2.5656 1.35305 -0.428512
408 2 35.5797 24.7714 6.65979 -0.111121 -0.980663 -1.77045
338 2 38.8812 23.5499 6.62959 1.36179 -2.12763 -4.31258
26413 1 42.9873 24.2134 6.63506 -1.55932 -0.893387 0.133795
342 2 41.56 23.4337 7.20017 0.0401305 0.740349 1.03802
26336 1 44.3717 24.7741 5.89679 0.196613 0.748138 1.00525
421 1 46.3187 25.4895 6.96996 -2.43738 -1.70448 1.70791
418 1 45.8243 25.4283 5.36371 0.132454 -3.47839 -0.654053
428 1 49.4259 25.1838 5.80991 -3.78457 -0.133759 0.236548
26424 1 49.0395 25.8012 80.5848 0.283606 -3.87236 0.17427
26411 1 47.884 25.288 6.39772 -2.89389 -1.48161 -3.80691
348 1 47.994 23.441 7.28049 -0.562904 2.22265 -1.41131
1873 1 51.2127 23.0569 7.19544 -0.236172 -1.58521 0.781111
431 1 52.866 23.1815 7.19659 -0.46288 -1.4545 0.629598
1798 1 53.3429 22.5688 5.72977 -0.570476 0.882675 -0.571739
26423 1 54.2969 23.3872 4.66123 0.44851 -0.489913 -0.133071
1953 2 55.0644 25.153 4.98959 0.993427 3.37605 0.325311
1877 2 54.6401 25.2352 7.01126 -1.38528 -0.577212 0.00391846
439 1 63.6337 24.7649 6.06724 -1.83094 -0.847306 -1.00074
1806 1 64.6393 23.5672 6.68947 0.427553 0.0435647 -1.50828
26351 1 63.6491 23.8429 4.66075 0.231309 -1.07398 -1.81105
26435 1 68.1428 24.4533 6.06113 4.28443 -0.881539 4.57059
443 1 68.5342 23.0633 5.31475 -0.371838 1.86146 2.16599
372 1 68.5464 23.9668 7.59227 2.37665 1.18786 -0.522022
26444 2 72.9096 24.8308 4.48966 -3.54185 2.62475 -0.935927
1821 2 75.6506 22.4457 6.30633 0.535211 -1.03372 0.510789
376 2 74.6935 23.9791 5.27026 2.77941 3.22197 -6.10875
374 1 77.6401 24.3555 6.64045 -2.59624 6.39264 -5.89967
26372 1 78.8626 25.1891 5.81618 -0.197146 7.83043 -7.44532
26451 1 8.60744 27.7192 6.80369 1.52108 0.4232 -0.249245
1909 1 9.3232 26.2202 6.50421 0.1929 1.49865 -7.19349
464 2 7.70452 27.9692 5.28909 0.638026 0.111375 1.34862
386 1 11.4919 27.5168 6.23774 0.424385 -0.830692 1.18496
465 2 11.9107 26.8215 4.54275 -0.508076 -1.02676 0.994386
392 1 10.8336 26.3756 7.2864 -0.0264342 0.838507 -0.183248
1837 2 15.9142 26.177 6.3781 0.669071 -1.60893 -1.51845
393 2 14.6666 26.7538 4.82071 -0.514756 -0.166982 0.889076
1839 2 17.0864 27.8604 6.87052 -2.21932 -1.71233 -0.673948
1921 2 18.5859 27.5403 5.47717 1.56668 0.183511 2.20396
399 2 19.4956 26.271 6.87435 -2.2731 1.17951 -3.42552
475 2 21.1986 26.2441 5.74665 0.495398 -0.217663 -0.871276
549 2 20.4639 27.8183 4.6629 0.973844 -0.25449 0.196044
26391 2 23.5046 25.5855 7.2767 -0.951223 -2.09513 1.18841
1930 1 34.0431 28.2179 6.27197 -0.52417 -0.200261 -0.273926
26475 1 33.0649 28.1622 4.86809 -0.807083 0.489407 1.06035
487 1 35.6209 27.5651 6.15462 0.303101 1.35567 1.60851
1854 2 35.664 26.0502 5.04358 -0.653021 -1.14333 0.281499
416 1 37.3966 27.797 6.43798 -2.08388 0.240176 -2.10466
26408 1 37.6181 28.3415 4.85165 -0.00860343 3.00207 -0.366496
496 1 39.1947 28.6515 7.00696 1.60001 3.18137 2.12574
26487 2 45.5019 27.1627 5.14339 -2.22418 2.45227 -1.76648
502 2 44.4647 28.6524 6.02841 -1.93866 -1.53512 -3.75098
345 1 47.431 25.6303 4.81609 0.0700005 -4.11513 -2.26591
26495 1 49.0847 26.7107 6.39996 -0.58519 -2.29036 1.36716
426 1 49.1568 27.3885 4.85474 -1.98238 -0.429807 -1.05057
507 2 53.977 26.9223 5.10234 -2.09114 1.0671 0.366412
1874 2 55.2613 27.1724 6.69682 1.87887 -0.634202 2.90324
1950 2 56.4436 26.7004 5.0648 0.698936 0.764385 2.20191
1949 2 57.7902 28.2618 5.08747 0.67765 -1.72804 0.73244
26504 1 59.3575 27.8516 5.68919 -4.17125 1.59485 -0.756053
1802 1 60.8589 27.3564 6.24061 -2.19238 0.226236 -0.334308
1878 1 61.1152 26.6161 4.76328 -0.366241 -0.352091 0.730272
26356 1 62.4527 25.807 5.42215 0.837847 0.618302 0.470918
1881 1 62.3033 26.7229 6.83642 -0.0583449 -1.11641 -2.41983
1883 1 63.5789 25.8053 7.38794 -1.51833 -0.143007 -0.450305
26583 1 66.3286 28.6372 6.64438 -0.579445 -8.4411 -0.412221
522 1 66.8564 27.5768 5.65781 -7.17674 -12.8844 -3.71317
26516 1 67.9604 27.5182 7.01597 7.84235 -8.09923 1.06989
515 1 68.2046 26.0024 6.43683 3.03561 1.58681 -0.736531
1894 2 73.3487 28.6145 5.44162 4.3054 -9.85471 -6.39299
1974 2 74.8899 27.584 6.21652 -0.320671 0.520334 2.53576
26521 2 75.1566 25.9613 4.88246 -0.558563 1.75018 -3.49213
384 1 76.972 25.7801 7.27989 -1.33763 9.02524 5.01485
1897 1 78.6826 25.873 7.32024 -0.787196 0.809166 -3.59932
459 2 5.62638 30.3933 5.45588 -0.0989664 -3.40811 0.319445
1902 2 5.70441 30.5208 7.52279 -3.13985 -3.84063 3.17497
1981 2 7.68656 31.278 7.39131 -0.788831 1.3073 0.134532
466 1 15.0511 31.1932 5.66416 3.81858 0.0348512 -0.39737
469 1 16.4922 30.3783 5.40814 2.86706 -1.11772 -1.80292
26460 1 14.9436 31.0949 7.36542 -1.20829 -0.596887 0.898457
1914 1 18.6141 30.4516 6.58372 2.32837 3.31389 -8.15335
26463 1 17.855 31.338 5.34761 0.304855 0.0128668 -1.1095
473 1 17.0333 30.0107 6.94734 0.513027 -1.24529 -0.528285
559 2 27.6107 31.9617 5.76367 -0.677955 -0.262887 0.138366
1922 2 26.5208 31.4321 7.42132 -0.311163 -0.0672357 -0.168158
26479 1 31.697 31.0342 5.99351 -0.258711 0.36583 -1.63735
1929 1 32.9146 29.2371 6.97713 0.0940438 1.2071 0.547835
412 1 32.3172 29.563 5.44226 0.645529 0.270349 0.140851
1933 1 34.75 29.4498 7.14773 2.08991 -1.13128 1.52075
563 1 31.7694 31.5461 4.38225 -0.456458 0.714804 -0.415604
26632 1 36.267 28.7053 7.17931 -1.75629 -0.659707 2.20491
492 2 35.1522 30.4962 5.62524 2.27406 -0.810533 0.588195
491 1 37.8589 29.6462 6.95105 2.00308 -1.1422 2.81652
1938 1 39.6677 29.0455 5.43794 1.01166 -0.819094 0.0248351
26563 1 38.2094 29.8428 5.32256 2.17852 1.98563 -2.34296
26412 1 40.5391 31.2191 5.14421 0.800857 -0.105174 3.15024
1945 2 46.2737 29.2471 5.35435 -0.424301 -2.21448 0.308002
503 1 48.7543 28.924 5.42651 -2.39739 0.175267 -0.0756502
1942 1 47.9756 30.0156 6.42932 -2.68951 -0.593813 0.0443639
497 1 48.3519 30.672 4.92348 -2.50721 2.29921 2.64828
26571 1 52.0935 31.1221 5.59641 -1.31239 3.87271 -0.295125
436 2 53.2615 29.0475 4.65339 -4.26554 9.67425 6.54218
26500 1 53.5989 31.3742 6.22937 0.11745 0.584732 1.34013
26584 2 63.6737 31.7482 5.29591 5.01856 -3.87146 -1.73187
1958 2 65.3762 31.5179 6.35813 4.96417 4.90127 -6.67564
520 1 66.535 29.5914 5.19224 -2.99536 2.84457 -15.8375
3406 2 66.5982 31.6389 8.34959 1.86082 -0.0237953 -6.66039
450 2 76.6707 28.3132 5.71882 3.19453 1.32 -6.44327
26519 2 75.3392 31.9122 7.47913 -6.43803 -15.0314 13.6464
532 2 78.8011 31.6996 7.38974 -5.08277 -1.37998 -2.3057
26527 2 5.58297 32.4309 5.75923 -1.88016 -0.217453 0.128323
536 2 5.54525 33.8599 7.25313 -6.15399 -0.922932 2.29339
535 2 7.5528 34.3395 6.7511 5.52966 0.204055 -0.782856
534 2 7.63855 32.5378 5.70612 -1.39609 1.86957 0.953212
26532 1 9.39661 32.5789 5.41512 -1.43684 -0.713559 0.68728
538 1 11.3903 31.8848 80.6504 1.31167 -0.276672 -0.996461
26531 1 10.9863 32.3938 5.87797 -2.32422 0.0517094 -2.8865
539 1 12.2451 32.3945 6.96021 -1.1862 0.548454 -0.361724
544 1 13.0082 33.5112 5.97389 4.59396 2.52895 -0.01085
468 1 15.3417 32.892 5.48779 0.475482 -2.44549 -1.92235
543 1 14.3826 33.1833 6.84727 3.93349 0.77615 1.01005
542 1 15.2211 34.4181 4.67429 2.03707 1.91269 -3.41038
1990 1 13.648 34.7489 5.03945 -6.24036 2.52596 -0.70869
548 1 16.5226 33.6939 6.3842 -1.56587 0.361333 -0.449481
2065 1 17.7459 32.5191 6.52975 1.67944 -0.982287 -1.6314
547 1 19.2729 31.9254 6.9135 -0.199851 -3.54413 3.15281
472 1 16.5517 31.5902 7.34805 2.36499 2.98603 0.00595147
476 2 20.7376 31.6629 6.04185 -0.372515 -0.448181 0.40451
556 2 24.7972 32.2498 6.62073 -0.491623 -0.906332 -0.275272
26547 2 23.4119 34.1609 4.49389 1.00492 0.0491188 0.567704
551 2 23.0141 33.1731 6.29382 -0.389366 0.189064 -0.766179
554 2 25.7979 32.1749 4.8184 -0.267164 0.387695 0.065263
2009 1 31.4975 33.1617 4.81953 -0.0621965 1.42629 -0.268439
26631 1 31.5577 34.1743 7.00659 -0.235565 0.0691373 1.36806
26480 1 31.2678 32.6248 6.40482 0.193474 0.972529 0.292403
2005 1 30.0076 34.5895 6.45697 0.629866 -0.487273 0.0573649
26551 1 30.8462 34.748 4.9827 0.011411 -0.219152 1.37214
488 2 35.3809 32.2886 6.70291 0.134676 -0.326972 -0.398287
2006 2 36.0664 34.2042 6.80542 -0.340381 0.409451 -0.449849
486 2 36.2242 32.8742 4.94291 -0.455643 -0.234162 0.217255
26559 2 38.0507 33.6651 4.5453 -0.0852077 1.09602 -0.234741
26560 2 38.0971 34.3484 6.48481 0.706399 -0.351568 -0.433193
571 2 40.6918 33.7482 6.93207 -2.92218 1.23345 0.307939
26488 1 40.8698 32.7965 5.53891 -0.0408911 -1.55008 -1.99373
26564 1 41.8042 33.8509 4.59258 -0.695513 -0.199883 1.23279
574 1 46.2329 34.339 5.48956 -1.13235 -0.145795 -2.80232
26645 1 44.8109 34.8255 4.78198 -0.911032 1.08392 -0.877946
26491 1 47.5538 31.9621 5.63989 2.29725 2.61851 1.82267
573 1 47.127 33.2355 4.61359 -0.894842 -0.473324 0.531522
26492 1 47.2847 34.0671 6.76888 2.54828 5.35394 0.553651
575 1 49.1488 32.3314 5.92515 -2.30753 -0.73348 -2.13094
26568 1 48.8729 34.0033 6.1362 1.47368 -0.781762 -1.62621
26569 1 48.5298 34.1334 4.48045 -1.8275 0.155023 -0.410821
499 1 47.4375 32.4427 7.24323 5.77535 2.65112 0.423795
504 1 51.3193 31.8656 6.91548 5.69696 -2.62661 5.19608
26567 1 50.5514 34.0934 6.4433 0.408288 -2.07065 0.205136
26496 1 50.6895 32.7116 5.48025 -1.89043 1.64693 -0.481927
2022 1 52.1965 33.4517 5.08395 -0.739638 -0.980503 2.69847
2025 1 52.1062 33.4162 6.81021 -0.586938 -1.58798 1.96762
577 1 53.7087 32.8284 7.07013 0.169482 -0.0883229 0.62674
26580 1 54.9226 33.2985 5.99241 -1.87643 -0.0926483 1.81398
578 1 53.3491 32.2507 4.82298 0.141003 -2.66682 0.963617
660 1 54.3259 33.5582 4.42645 3.10981 -1.71764 2.35206
585 1 56.4697 34.2906 4.82789 -2.75623 0.58828 2.84173
1954 1 58.2598 32.9061 6.25297 0.226663 0.534978 -0.791476
581 1 56.603 33.0796 6.00333 -2.5048 0.243327 3.02832
583 1 56.5781 34.2661 7.21736 3.38136 0.184481 1.54044
516 2 59.1177 34.0741 5.2609 -9.33971 5.32106 3.16513
2035 2 60.7905 34.8502 6.38082 5.92901 -10.0992 2.36939
1957 2 62.9258 32.3679 7.13377 -9.41394 -1.35527 -6.93692
592 2 63.0757 33.8733 5.79704 9.10842 -0.810605 -3.85848
2030 2 61.73 34.7853 4.53828 -5.4338 7.82883 7.28744
2041 2 71.2135 34.2219 5.31038 12.4729 9.76729 1.88306
524 2 71.9084 32.5594 6.43827 3.22791 2.50026 19.9378
601 2 72.7198 30.5184 5.73537 13.95 10.5277 -4.24954
604 2 72.6449 35.7779 5.94965 9.1593 -2.11184 7.31438
528 2 73.6809 33.6458 7.11408 -25.1624 11.0943 -10.8916
2045 2 74.7709 32.6421 5.6636 7.6986 -16.6466 -8.71605
2049 2 79.8522 32.5776 5.84789 -0.672009 3.09547 1.60234
2046 2 79.7819 34.299 7.07942 -5.61578 -3.99295 3.81978
1977 1 78.8294 32.8723 4.52152 1.52964 -0.590349 1.88344
26608 2 8.04559 37.5952 5.86624 -0.340857 -0.401923 -1.01083
2057 2 10.8083 37.8163 5.99208 -0.348865 -0.315743 1.88782
620 2 12.6376 36.8445 5.96685 -0.694065 -1.98581 -7.37695
2062 1 15.5872 35.113 6.12877 -6.14897 6.1247 3.309
619 1 14.129 35.9358 6.05611 3.64954 -2.41558 3.94969
2069 2 22.207 37.3139 6.09683 2.14758 0.253792 -0.56186
2073 2 24.274 35.9893 4.96423 0.0837012 -1.1749 0.864381
631 2 23.2324 35.714 6.98075 -0.0411629 -1.00197 0.360714
2070 2 24.2457 37.3847 6.47701 1.29172 -1.54146 -1.40714
26627 1 30.2264 36.0916 7.19175 -0.910938 -1.12383 1.00593
2233 1 31.9118 35.9861 7.20173 -0.557049 0.428329 -0.636929
561 1 32.2641 35.1163 5.81807 -1.03649 0.0463166 0.62004
2013 2 39.8458 35.3343 5.9858 0.886367 1.52237 0.799367
566 2 38.9825 36.8034 4.84992 -0.415933 -1.04823 0.617249
570 2 43.1696 35.2479 6.96395 -0.802281 -0.066566 0.0407141
26639 2 44.5037 36.3074 5.84072 1.00419 0.79894 -0.222047
646 2 43.903 37.7034 4.43439 -0.0387117 1.67023 -0.938767
26644 2 45.3074 37.6334 7.27551 -0.173182 -1.79065 -0.998027
655 1 51.9729 35.0886 4.75448 0.609116 -1.2767 -0.205957
651 1 51.4864 35.5004 6.32815 -1.0674 -0.850362 -0.976649
653 1 52.2598 37.1886 6.13436 -1.4712 0.185149 0.633375
2094 1 51.8064 36.7607 4.54401 -1.5534 0.975642 -0.716616
584 1 52.8951 34.9018 7.0341 0.163123 -0.324681 -3.19072
588 1 55.4738 34.9007 6.07968 -0.12192 -0.687696 3.403
2098 1 53.444 36.9139 4.96961 -1.55447 -0.571271 0.842168
2101 1 53.9968 35.7511 6.04647 1.60685 -1.56201 0.465807
657 1 53.6458 35.1137 4.55661 1.12919 -0.868118 0.524069
2037 2 62.6061 35.3392 7.11431 5.74254 -0.790851 6.99066
596 1 66.1197 36.9843 7.48568 4.47637 6.51555 3.73877
674 2 69.7147 36.4613 6.23382 -6.68392 1.29306 9.95742
600 2 69.9559 34.6117 7.0641 3.16845 -3.02856 1.79068
598 2 70.6608 37.2561 8.0086 -4.40228 8.57268 -1.41914
599 2 71.7099 35.5542 7.74902 -0.536899 1.03655 -7.2007
678 2 73.9496 35.8543 7.49032 5.56536 -8.09925 3.60384