ITEM: TIMESTEP
170000
ITEM: NUMBER OF ATOMS
27436
ITEM: BOX BOUNDS pp pp pp
4.3730680895976803e+00 8.0626931910405389e+01
4.3730680895976803e+00 8.0626931910405389e+01
4.3730680895976803e+00 8.0626931910405389e+01
ITEM: ATOMS id type x y z vx vy vz
4 1 6.03516 6.4323 5.19181 -0.704233 0.0107502 -0.136274
1 2 6.82709 4.77538 4.63371 -1.40675 0.0818255 -0.345616
76 1 4.53433 5.64661 5.07914 -0.712509 -0.265465 -0.670934
25995 2 7.72258 4.6251 6.48942 -1.82342 -0.751302 -0.152394
1454 2 15.7476 6.50931 6.78896 -1.50238 0.434236 0.863394
25999 2 14.0095 5.53413 5.72632 0.48282 0.257216 -2.79439
10 2 16.5469 4.63346 5.05436 1.27877 -1.75505 4.16267
11 2 14.9221 4.77592 7.35697 0.206249 4.30778 0.0429832
1458 2 17.5685 4.78519 6.82665 2.54846 -3.65603 -1.09605
89 2 17.6686 6.17575 80.5516 1.04105 1.0128 -1.51526
19 2 19.9303 4.63908 5.87909 1.01102 -0.0634779 0.709727
171 2 20.0849 6.60339 5.5401 5.60965 1.02236 0.00851698
1391 1 24.1861 6.74206 8.61089 -8.78362 1.16072 1.39198
99 1 24.765 7.0051 6.36856 3.17324 -5.69806 0.0778441
2840 1 24.7212 4.92866 5.86212 -1.49756 -7.15904 3.76779
2836 1 24.1268 5.71361 7.25397 7.96467 10.7181 4.61256
1537 1 25.0792 7.8815 7.75403 7.42939 -2.76516 4.47644
2834 1 25.9903 5.9187 6.4503 -6.7935 -1.87126 15.2435
27 2 30.5682 4.59194 4.58442 1.59411 -3.08418 7.80538
29 2 32.2586 5.64738 4.93541 2.37823 -3.19991 -0.339649
31 2 32.5052 5.90605 6.99531 4.43254 8.34591 -1.82404
1404 2 36.8977 5.22327 7.19134 1.65516 0.938094 -2.87731
2838 2 35.1717 80.4254 7.28953 -0.502134 -0.0507647 -2.11876
1481 1 37.8247 6.57037 6.36668 5.17102 3.33136 -3.90185
26107 1 39.3073 6.77068 5.61418 2.79503 5.02883 2.49065
26028 1 38.3767 5.68462 4.88464 0.887941 -3.39472 0.657322
1482 1 41.9065 5.42486 80.2346 -2.55701 -2.2328 0.156391
115 1 44.0196 4.50892 80.5703 4.83135 -7.75822 0.605719
44 1 42.4795 80.0834 80.3875 0.151634 0.56868 -0.972334
1412 2 45.246 5.37351 5.61535 -1.99217 3.90699 1.14079
1489 2 45.5125 6.0613 7.54093 13.2089 4.06828 5.41032
26036 2 48.0622 80.3586 80.6542 -3.9363 5.61035 5.80041
2862 2 52.1631 80.5204 80.4222 -4.48812 1.46201 3.47826
1420 1 55.3035 4.72426 6.94404 2.39721 -8.99412 -2.44283
27416 1 56.4876 5.78666 6.29004 -7.69951 2.44343 -6.52133
26044 1 54.3802 6.15185 7.07685 0.67493 4.08774 -6.88654
26123 1 56.3774 7.19821 7.31606 5.76992 -1.62744 -2.16935
53 1 57.9096 6.94483 5.98063 -2.7129 0.236622 -0.143703
55 2 59.0993 4.79199 5.35883 1.14108 0.14908 -1.58117
26047 1 58.0675 5.41867 6.66957 -3.63894 0.525122 -2.08097
1422 2 61.359 4.88105 5.47265 0.692966 -0.21134 -2.08916
1502 2 62.3516 7.55209 5.57889 2.54772 -2.05012 1.66936
60 2 62.6894 5.85007 6.76684 8.0765 -6.05011 2.60042
133 1 67.2006 6.03795 5.8552 1.69484 6.8119 -7.74742
1430 1 66.4957 4.6381 6.37907 3.84221 -17.6268 -16.7068
26055 1 68.002 4.66406 7.1705 -8.18533 2.52242 -2.99985
1426 1 68.4096 4.95605 5.55234 4.86142 2.16639 -1.20435
27420 1 68.5814 6.74647 5.39854 1.93924 1.7235 -1.37033
1436 1 69.6453 6.61058 6.6635 1.39291 -0.224065 0.228996
68 1 70.3904 6.99783 5.21748 1.96302 0.519943 -1.11479
67 2 72.8355 5.62537 6.47828 -0.462286 0.121055 -0.16094
1513 2 73.4537 6.47888 4.67745 -0.819171 0.301459 1.42351
72 2 74.6926 4.80628 6.91099 -0.344478 -0.814721 0.403301
65 2 75.0878 6.62141 5.97131 -0.241391 0.170771 -0.907308
2882 1 77.6677 4.47746 6.6054 -0.436284 -0.524082 -0.429522
1448 1 78.3195 5.23491 5.25136 -0.192759 0.16662 -0.00199976
26068 1 79.826 7.0087 4.80564 -0.700423 -0.34063 -0.201203
1521 1 6.43221 7.63419 6.29608 0.0499218 -0.46068 0.665282
79 1 6.88842 8.63272 5.02443 0.436852 0.816002 0.464074
227 1 7.23173 9.88492 6.108 0.352344 -0.673365 0.296735
26075 1 9.93858 9.88454 4.71786 0.533747 0.0946897 0.388183
1525 1 8.88933 10.1507 6.00689 -0.575692 -0.147296 -0.0985401
2969 1 9.8461 9.39373 7.20581 0.251348 -0.098982 0.649166
87 1 12.8329 9.85386 5.93167 -0.119815 -0.774321 0.821744
1527 1 11.3151 10.0607 6.74152 0.034566 0.88619 0.563769
1533 2 15.2579 8.65947 6.14108 1.24196 -0.625506 -0.366172
1457 1 14.1617 9.34397 4.95942 -0.0816343 0.680868 -2.24874
26008 2 16.9031 7.64503 5.5107 -4.06501 -2.26507 -0.808569
96 2 18.8069 8.13178 4.82832 3.21979 1.26134 4.7324
1620 2 19.6008 10.2556 6.24798 -3.83815 -1.96339 -3.04726
1468 2 20.542 9.28919 4.66029 1.4495 0.296064 1.42831
22 1 24.3049 10.5715 5.44425 9.50703 -0.151446 1.02391
104 1 25.3698 8.21329 5.33358 4.75058 -7.99592 -2.44728
26091 1 25.4058 9.66447 6.17417 -6.34577 3.54083 -9.28661
1538 1 26.3202 8.55836 6.84135 -8.95199 21.8417 -8.79204
1474 2 32.6104 8.98952 7.18975 -9.91236 -9.31526 14.4887
30 2 33.3413 7.35615 4.53056 -1.66501 -0.730387 -0.1178
32 2 33.8553 7.40691 6.50172 -4.29679 2.87982 8.45727
107 2 34.5877 9.27883 6.87452 0.638097 9.52506 2.49314
36 1 36.8815 9.61746 7.42055 -3.62095 -1.25946 11.0964
1408 1 37.4762 8.1425 6.89605 -8.68621 1.31632 8.22801
48 2 48.9861 8.67715 7.1324 2.64276 -16.3681 -10.0848
26114 2 50.4297 9.85243 6.48557 7.43394 -22.5363 18.6308
26115 2 51.8308 8.29076 7.06172 16.4137 0.511126 8.92256
122 2 53.271 9.87573 7.30692 -2.0462 15.9941 -9.04239
26195 2 53.4517 7.26242 6.6769 8.31898 -1.08421 -9.93219
126 2 54.934 8.47289 5.94318 -3.66887 -14.0055 -3.74215
26045 1 56.917 8.30435 6.1883 -7.92113 4.49362 7.83146
26048 1 59.0445 7.79982 6.85399 -2.98049 1.94475 0.613037
2946 2 61.8673 8.50697 7.35895 -1.82079 3.09814 -1.58672
140 2 62.6903 9.54042 5.10522 1.30436 0.515368 0.337229
64 2 62.9996 10.2074 7.0438 -0.493422 0.0829606 -1.78325
26060 1 70.4747 8.66534 5.30502 -0.604993 0.22003 0.713777
143 1 70.017 9.36478 6.74802 -0.246232 0.93859 -0.649492
71 2 74.1109 8.02191 7.16809 -0.163589 0.483027 0.111573
69 2 76.4377 8.07209 5.3318 1.24388 0.298623 -0.95207
145 2 75.6553 9.35583 6.75015 0.348846 -0.00878548 -0.546831
150 2 77.5878 10.1176 6.8438 -0.390811 0.652907 0.0720722
74 2 78.1968 8.176 6.46412 0.0360746 -0.528954 0.899282
77 2 79.0263 8.60986 4.61209 0.800422 0.452625 0.876069
1666 2 78.1207 10.4724 4.87509 0.600255 0.0566856 0.765347
8 1 9.63728 11.6446 6.34163 -0.167034 0.326716 -0.347614
26004 1 12.202 10.6515 4.37878 0.0518764 0.740456 -0.219502
83 1 10.498 13.0126 6.83515 -0.513542 1.32757 -0.699723
1529 1 10.9224 11.0693 5.40697 -0.000195908 1.34118 0.355999
1526 1 11.8626 12.2737 6.151 -0.377015 1.61794 1.36869
26080 1 13.158 11.433 5.49238 -1.10503 -1.0661 1.17306
1605 2 13.1748 13.198 6.8666 -1.82205 -0.901986 0.509615
16 1 14.4341 11.5307 4.41854 -0.151576 -0.47956 1.85229
92 1 15.9888 13.3984 4.42939 -1.31081 5.61775 1.55266
24 1 22.6336 13.0337 5.07518 5.78956 2.0006 -6.03011
95 1 24.723 12.1113 5.3724 9.81368 27.5948 -2.92425
26167 1 23.8854 13.246 6.19677 -1.88581 13.7866 -3.63419
97 1 23.2954 11.6009 4.50802 1.9894 3.28863 -5.03714
180 2 27.0911 13.3103 7.40995 0.221902 -4.59626 2.37301
1626 2 30.0884 11.907 6.69084 0.0969775 -0.583098 6.42753
1625 2 31.5916 11.1055 5.43746 6.97504 3.33219 0.903045
185 2 34.385 10.6305 5.09112 1.82263 -8.89488 -3.3495
259 2 35.1654 12.0803 6.25205 -11.7309 3.15058 22.1
26180 1 36.6873 13.4415 5.70316 10.564 0.208828 -1.92908
1631 1 38.2182 12.9328 5.97808 -0.0107615 12.7739 0.168057
189 1 37.7391 12.1049 4.61836 -3.88227 -21.8643 -2.83327
26108 1 38.2109 10.505 5.15008 1.06618 5.50006 -2.88902
187 1 38.5621 11.4286 6.54279 2.12629 12.241 -5.53286
116 2 43.4967 11.6833 5.15728 -28.7128 11.1416 3.30439
195 1 45.4439 13.071 5.86537 -17.9018 26.7424 -6.21797
267 1 46.4867 13.4467 8.19585 -15.5326 14.1656 9.23813
1562 1 45.0409 11.4237 5.54523 -11.4445 -20.0285 -16.4929
26188 1 44.938 12.2065 7.25295 -7.50829 33.707 -16.7539
197 2 51.9508 11.2638 6.72282 -5.03577 8.30396 -9.97185
26191 2 52.666 11.8177 4.98312 -3.27705 0.803579 12.9413
26120 2 53.8878 10.141 5.44867 -0.3411 -1.19278 7.44379
26199 1 58.554 13.1145 5.98099 -4.95519 3.77524 1.18125
1721 1 57.6963 13.3875 4.51035 -1.56846 0.761379 0.71866
208 1 59.3374 11.8888 5.15311 -0.261886 2.91979 -0.0428778
1654 1 60.5514 12.0274 6.27043 -3.34585 0.285544 2.45161
136 2 61.7587 11.3741 4.85118 -1.6487 0.0784603 1.29662
135 1 61.7927 11.473 7.29154 0.0932411 1.95862 2.19706
1657 1 59.6135 13.0268 7.31133 -1.58239 1.30137 -0.86475
26212 2 66.5417 11.7657 5.81767 -1.15983 -1.29341 -0.47039
142 2 67.3996 12.5586 7.55258 0.516442 0.0766547 -1.18657
1662 2 69.3781 13.0759 7.16872 2.00101 2.0729 -1.97828
152 2 79.7101 12.6211 5.57058 0.144385 0.356727 0.632547
160 1 9.08866 14.9578 6.97657 0.340628 0.086359 -0.265939
26152 1 8.40797 16.4572 6.72241 -1.56968 -0.15596 -1.66311
88 2 13.1613 14.4047 5.2339 0.991096 -0.543155 -1.00963
162 2 13.3327 16.3867 5.61054 0.575489 0.106197 -0.775795
163 1 10.6478 14.5974 7.38014 -0.649506 0.275208 0.143654
1611 2 15.0624 14.0341 5.896 -0.834529 -1.35577 -0.344301
168 2 14.8663 15.8364 6.84827 -1.10564 0.326646 -0.11421
1613 1 21.9561 14.4645 5.69546 1.14868 -1.56463 -2.29597
26239 1 21.4637 15.8642 6.40648 -2.12307 2.59436 -0.614267
26168 1 21.7451 16.4598 4.831 2.56361 -1.98641 -1.32972
174 1 20.128 16.1034 4.5576 1.06466 2.26688 1.0385
175 1 22.8208 14.0215 7.10678 2.65388 -25.307 -3.4651
26096 1 24.5769 14.605 5.66134 1.94362 1.82819 0.435799
26163 1 23.2508 15.316 4.92885 2.68194 -0.672222 -1.41202
26171 1 24.9786 15.9892 4.85545 0.97038 1.77425 0.562939
1697 1 26.141 14.466 6.35654 0.170514 -0.85277 -1.26457
181 1 26.0551 16.1268 6.16089 -0.666826 1.69824 0.687456
179 1 27.6023 14.4714 5.51669 5.05421 2.27558 5.68247
26176 1 27.2899 16.0752 5.0183 4.23207 1.7063 2.11052
183 1 28.6084 15.7058 6.07999 3.16116 2.58494 2.94141
184 2 30.7956 13.6927 5.89581 1.60465 -1.88462 2.62433
3219 1 30.2776 15.5953 6.88972 3.37505 -3.5407 -5.03424
1701 1 31.644 14.6128 7.05612 -1.22341 3.16049 3.07714
1703 1 32.5419 15.6721 7.92015 0.391364 5.09564 -1.8957
1630 1 37.2203 15.0493 5.4478 23.0927 9.36943 -4.55728
335 1 36.5303 16.5254 7.04656 1.34671 1.39753 1.15792
264 1 37.8684 16.3508 6.14157 -3.56246 0.881337 4.35052
1636 1 38.1491 13.8575 7.4006 5.89534 -2.80144 -6.10778
1706 1 38.5974 15.4798 7.56967 4.2985 8.10511 -18.185
1557 2 43.0624 13.3673 80.6466 7.85209 5.63342 4.2001
192 2 43.5639 15.4547 80.2531 0.562605 2.99357 8.3839
196 2 49.6255 16.6067 4.79701 8.50809 0.192726 0.728834
121 2 51.8468 13.7779 5.43854 -3.57676 3.6966 4.21115
275 2 51.204 15.7309 5.95619 3.27005 1.51918 2.4057
1651 1 57.3825 14.0413 6.79749 -4.13541 4.77276 1.61079
203 1 57.0574 14.8611 4.97119 2.59113 -3.33815 3.50816
207 1 57.9728 15.5226 6.17898 -1.21595 3.07291 3.14596
26200 1 58.8931 15.8517 7.55601 -17.6227 -11.9805 -1.17235
1733 2 64.127 15.4877 80.4592 0.753255 0.597495 -0.211156
26132 2 66.4314 13.5386 4.77579 -2.85421 0.616047 0.73251
1661 2 65.836 15.4548 5.37342 0.887359 0.608332 -0.649671
1737 2 67.7538 16.1416 5.0575 1.11403 -0.159084 1.43769
295 2 68.3857 14.4813 6.10303 1.37478 2.01145 1.16079
224 2 70.4863 15.4909 6.3072 1.91668 0.477231 0.801481
218 2 70.3884 13.8383 5.02722 0.198084 0.167873 -2.52391
373 1 74.0269 15.6648 5.64661 -1.62411 -0.325636 0.999502
297 1 72.1782 15.6703 5.68464 0.144197 0.839648 -5.79433
300 1 74.4409 14.2341 4.88284 0.148794 -0.270734 -0.870361
228 2 80.006 14.2449 6.74212 -0.000560864 0.0350971 -0.133035
305 2 78.4189 15.5163 6.43043 0.0888839 -0.516626 0.0664623
1819 2 80.2427 14.2508 4.52087 -0.179601 0.212489 0.259284
158 1 6.90617 19.1719 5.7288 0.554833 1.10561 0.181075
303 2 4.88949 16.9876 7.13175 0.224206 0.34168 0.159823
1753 1 7.41928 17.7774 6.46632 0.168218 0.387322 -1.05412
231 1 8.21389 18.0637 5.04528 -0.0827934 1.04976 -0.835085
1746 1 9.36858 18.6388 6.11597 -0.0621369 -0.749562 0.41205
1681 1 9.88455 17.2557 6.92711 -0.84509 0.170567 -0.570667
240 2 12.4484 19.5043 6.46784 0.551992 -0.163441 -0.495347
235 2 11.8024 17.6575 7.05757 -0.608182 -0.616981 -0.716347
26312 1 16.6668 19.2276 4.82165 1.11205 -0.308736 0.0902517
26237 1 18.1437 18.4426 4.91561 0.86916 -0.2435 1.27614
26311 1 18.7757 19.4852 6.07812 2.56468 1.3965 2.22924
397 1 19.9345 18.3507 6.43087 -7.08728 -6.54493 -2.48636
252 1 20.1611 16.758 7.03964 -0.727047 -20.887 -9.23475
331 2 27.3194 18.856 80.6075 -2.11895 1.88752 0.703777
255 1 29.3321 16.9858 6.86074 0.7824 -0.0115972 -2.94889
1777 1 30.9815 18.8726 6.35003 12.8867 -2.3287 7.30712
3142 1 31.4374 16.7187 7.18278 -5.93191 -5.15673 2.35499
1699 1 32.407 18.0356 6.81639 4.30533 -14.0105 4.20057
339 1 34.2497 19.0599 6.13156 1.39878 3.97534 3.93994
1775 1 33.0804 19.5891 7.18206 -0.160889 -0.29369 -3.29709
411 1 35.0217 18.5352 4.74893 7.73078 -3.73186 10.333
1857 1 37.037 17.1032 4.89952 3.56506 -5.11174 -3.14505
26327 1 35.7694 17.4533 5.96502 1.49174 4.10209 -7.60662
1779 1 34.8693 17.9523 7.34561 8.7134 3.98833 -8.87649
341 2 42.6013 17.4159 80.11 2.88184 -8.69246 -5.43108
268 2 42.5668 19.3588 4.99246 -2.27507 -5.83684 -14.3518
1785 2 44.0342 20.0038 6.60756 8.69694 -6.4369 -3.56456
1638 2 49.524 17.6736 6.70979 7.2519 -1.70542 8.54295
26263 2 48.0938 17.6031 80.3032 21.4343 18.4759 2.20643
356 2 50.5237 19.28 5.7299 -4.6673 4.50076 2.04437
1718 2 51.52 17.4859 7.02056 -10.1127 -4.78291 6.66695
26272 2 55.4596 17.2248 5.59932 1.46695 -7.29547 -4.73179
1800 2 55.1792 19.1619 5.18745 2.9123 -1.00312 -0.272799
357 2 59.2827 18.3473 6.40064 -3.49129 15.3243 -8.69987
282 2 57.487 17.5204 6.04143 9.63206 -8.93605 8.82767
26357 2 60.9577 18.204 5.25891 3.3697 0.995293 1.27331
367 1 65.8629 19.3912 5.18415 1.84212 -0.736515 -1.10355
296 1 65.8421 18.2833 6.42659 -3.7184 -1.57762 -0.90479
291 1 67.4746 19.2272 4.72422 0.0266593 1.59103 -2.5295
26287 2 69.7336 16.6993 4.78043 0.189744 1.59303 0.700275
1741 1 72.3535 16.8289 6.84617 -0.00346336 1.27236 0.828723
26291 1 73.8487 17.2205 6.27288 -1.75647 1.66365 0.632471
299 1 73.6917 18.8259 6.78773 -0.885607 1.04279 -4.44353
26147 2 79.7938 16.7688 5.59263 0.11881 0.174449 0.119853
26304 1 6.09771 21.4588 4.49645 -1.15309 2.06108 1.26872
236 1 8.38078 19.9853 5.8718 -2.20222 0.440759 0.119517
311 2 8.21308 22.4177 6.67689 -0.641222 0.993466 0.263759
312 1 7.63354 21.5378 5.18579 -0.930568 -0.024603 -0.42093
26232 2 10.4568 22.6115 6.30221 -0.49471 0.62048 -0.735471
237 2 12.072 21.4741 6.94883 0.0783478 0.177998 0.238179
238 2 13.8444 20.9427 6.0183 -0.413245 0.923101 0.382665
26231 1 15.4062 20.2746 5.25817 0.611249 -0.37617 -0.970198
244 1 16.6776 21.3014 5.64399 -4.75071 0.545879 -3.46514
1761 1 17.99 21.0627 6.61254 -3.16573 3.77869 -0.505554
319 1 19.3438 20.4235 7.33469 4.17402 -3.48165 2.02784
328 2 24.5089 21.9363 6.89939 -5.30487 -3.18651 -2.32127
1762 2 23.1434 20.3932 7.15159 -8.01467 12.1576 -8.34597
251 2 26.8052 19.7268 6.1489 3.43027 -1.86859 -0.242164
26319 2 27.8746 21.5279 5.94388 0.255347 0.192979 -3.00059
26323 2 31.1757 20.023 4.94403 -1.74643 1.19885 -1.93518
329 2 29.3849 21.0881 4.59004 3.39475 -0.260364 1.49027
1847 2 28.9229 20.1486 6.93698 0.49453 10.0603 -4.18285
1778 2 35.1327 20.6425 6.16105 -1.63262 0.0481623 6.46666
1702 2 35.1171 22.4563 7.07423 -2.94547 0.328751 2.15442
1784 2 37.0951 20.5138 6.53839 -4.03065 -6.87976 -1.56577
343 2 39.4709 21.1446 4.58001 2.09801 1.83743 -2.01478
1781 2 39.125 20.6063 6.5392 -5.92198 3.12962 0.779164
1783 2 41.4578 21.116 5.63518 -3.52972 -0.0765333 -8.67508
270 2 44.8528 20.7489 79.2952 10.9483 12.4692 5.65122
26419 2 51.8625 20.7243 4.85451 -4.54991 1.48416 -6.55997
1794 2 52.734 21.2058 6.65042 4.14564 -12.9368 2.85643
1796 2 50.9711 20.4246 7.3478 2.00657 8.95615 3.49078
1797 2 55.2085 19.3974 7.22871 -2.2664 -0.578507 8.89229
26266 1 56.8338 22.0678 80.5258 -4.64841 1.75801 5.31293
1729 2 60.9765 19.2715 7.05741 -2.26284 -1.17332 -4.61212
368 1 64.0842 21.4096 6.87362 -1.42099 -0.987482 -3.64452
365 1 64.2768 22.1961 5.42544 1.58151 -1.02763 1.53901
1809 1 65.4723 21.0383 5.30391 1.70957 0.618955 4.22082
1734 1 66.3251 19.7533 6.93939 2.03765 -1.8942 1.54406
363 1 65.8334 21.3667 6.93877 -0.268155 1.80602 0.33696
26360 1 67.5026 21.7386 7.1254 0.816276 -2.91459 -3.39151
1813 1 67.5745 20.4272 6.0018 2.07975 -4.39422 0.825977
362 1 67.0343 21.5976 4.91266 0.316503 -0.0512804 -0.574049
371 2 70.0308 22.3629 4.78396 -0.687049 -2.85196 1.53318
1817 2 73.6696 20.4821 6.06076 -0.637224 0.683707 -1.03223
447 2 72.3581 21.0588 4.53531 -1.17533 1.30661 1.78696
1893 2 75.3006 20.123 4.52778 -0.789334 2.44089 2.73361
1821 2 75.515 22.5923 6.87285 -1.63584 -0.174871 -3.8434
1818 2 75.6244 20.5139 6.51732 -1.58286 1.12905 -5.00395
26447 1 79.3813 22.3204 4.83332 0.0753964 0.263049 -0.379692
26307 2 9.03828 23.8033 5.42408 -0.340313 0.884947 -0.835891
313 2 11.8449 24.083 6.62164 -0.0438388 0.249112 -1.05326
26383 2 13.2343 25.5894 6.57803 -0.66154 0.280424 0.171548
26308 2 11.797 23.4948 4.66619 -0.1704 0.460217 0.478063
389 2 10.4082 24.9899 4.41458 -0.689605 0.362726 -1.06222
26390 2 22.6033 25.4 80.6078 -0.35752 0.320924 0.957567
26399 2 23.8692 23.9221 6.65247 1.17402 -4.01046 0.0958654
26393 2 25.8052 25.5128 4.99598 -0.228085 0.754941 -0.615494
256 2 26.2574 22.9284 6.11023 -4.99404 -1.35577 1.43037
406 2 27.4825 24.4853 5.4776 -3.61823 -1.45235 0.453958
327 2 28.746 23.259 6.57565 1.25693 -0.237193 -1.55975
24951 2 30.1901 22.8837 5.16711 1.37506 1.04988 -1.01169
1849 2 35.739 23.2065 5.26183 -1.87338 2.83997 1.71489
408 2 36.0091 24.9856 6.29323 0.163638 -2.92573 3.92558
26407 2 39.2157 23.1879 4.51874 -3.0384 -1.22263 -2.61307
340 2 37.7627 25.3183 5.33122 -0.658949 4.60859 -4.71188
338 2 39.2804 24.2942 6.25523 4.28579 -2.00748 0.248187
1786 2 40.6424 22.8509 7.00011 5.27187 -2.68022 -9.01141
26413 1 43.9148 24.2631 7.58774 2.52789 -8.24734 16.7056
421 1 47.4209 25.5009 6.2027 -0.729489 -4.02069 20.5796
26336 1 45.1722 25.2896 6.91547 -2.10372 -10.0934 5.82985
26338 1 45.5284 24.1247 7.90883 5.67937 3.96389 7.49963
26340 1 47.0094 24.5345 7.5209 -1.55086 2.78754 -0.16934
26411 1 48.5845 24.3731 5.66426 -3.80449 -0.601063 12.1956
427 1 49.6599 23.2404 6.13898 -4.53933 15.3495 9.27916
1870 1 49.9776 25.6753 7.12985 7.31764 -3.49309 1.47791
348 1 49.3326 22.9342 7.78146 4.11398 3.40798 -1.37298
26260 1 48.8242 24.5106 7.34432 5.38725 -11.2458 10.0059
1871 1 50.8923 24.1897 5.6274 0.928515 6.66175 7.31238
1873 1 52.3117 23.2188 5.67375 -1.15363 -5.14121 4.17331
431 1 52.8221 24.6278 6.37948 -11.5808 -3.27995 6.53791
3317 1 51.4246 24.6397 7.20955 0.794981 4.74617 0.457203
1798 1 53.5288 23.2269 4.46528 3.68823 -0.250886 2.64112
26271 1 54.3179 24.3288 5.47823 9.09088 -8.04464 8.29761
26423 1 55.4709 24.0184 6.60678 4.11123 3.08712 1.94243
26499 1 55.6869 24.3294 80.6281 -18.189 3.31754 6.62123
26276 1 56.3376 23.1528 5.38668 5.83659 -0.998012 -6.67341
511 1 59.5005 25.7234 5.3233 -1.2993 1.59971 -0.827017
26356 1 62.1379 25.3381 5.61003 1.47497 0.789554 -2.83604
26280 1 62.0193 24.3271 80.5304 1.52076 -3.0737 -1.0414
439 1 63.1528 24.1869 6.33392 -1.11713 5.29275 -0.46584
26351 1 63.2057 23.3536 4.86572 1.40523 -1.71748 0.762433
26359 1 67.5348 22.8716 5.8871 0.5019 1.13291 1.02041
443 1 68.4112 24.0043 6.7573 -0.156134 3.15313 -0.148775
26435 1 68.8777 25.6225 6.91705 -8.53197 1.22751 -1.13391
1814 1 69.8233 23.548 5.94074 -4.11741 3.36515 -0.563392
372 1 70.3684 24.8027 6.92384 -4.20909 -3.31443 4.32786
376 2 73.8605 23.7334 80.5674 1.52735 3.2768 4.00022
26444 2 71.8786 23.0579 80.5727 -2.89911 -4.39975 0.413077
26521 2 74.5179 24.2543 6.16213 -0.972349 6.32208 12.2098
381 1 77.4407 23.9651 6.41954 6.49926 -0.38399 1.07023
374 1 78.4599 25.1307 7.04613 -0.0544202 0.436836 2.30458
26443 1 78.1021 23.3766 4.9866 -1.59392 -0.0291535 0.881303
461 2 9.55068 26.8828 4.43306 -0.0153146 0.28064 -0.428875
1909 1 9.70267 27.6433 7.32975 1.01678 -1.20102 1.05856
307 2 10.8297 27.4098 5.94419 0.234556 0.109971 -0.0671999
465 2 12.7038 27.5368 6.76527 -0.127615 -0.122706 0.179506
1768 2 16.1845 25.9764 5.92242 0.15769 0.3326 0.425741
26384 2 14.3664 26.8165 5.45139 -0.0339871 0.265202 0.42691
1837 2 16.8589 27.8837 5.86022 -0.0358988 0.107741 0.144958
395 2 18.3827 26.5464 5.90578 0.124754 0.0677186 0.513601
399 2 20.0346 27.3574 6.85588 -0.119557 0.431032 -0.442595
475 2 21.3434 26.6045 5.42452 -0.539342 0.316239 0.0620799
549 2 21.4188 28.3908 4.4481 -0.070164 -0.218368 -0.897586
477 2 23.9524 25.8572 5.83332 -0.105445 -1.68623 0.683536
26397 2 26.4488 25.9216 6.86569 -0.509142 -0.126512 0.373831
26475 1 30.5521 27.8068 4.64901 0.315473 -0.732744 -1.50089
1854 2 36.233 26.389 4.55334 -10.3972 -5.15228 -2.40577
26406 1 37.8281 28.2583 4.96346 0.473104 9.18879 -15.3582
491 1 39.4472 28.2428 4.39212 0.0999511 -5.56449 -7.91148
418 1 46.2551 26.6287 6.87635 11.1241 -2.73481 11.492
26487 2 45.7563 28.152 6.77787 -3.10449 1.37288 -8.57356
1945 2 44.7853 28.7308 4.87882 10.0799 10.7137 -5.72606
345 1 48.551 26.3926 5.31441 -0.709498 0.236709 12.8254
426 1 49.5876 27.6217 6.06675 -0.513585 -5.53331 -1.49579
503 1 50.2136 28.5853 7.25938 -1.43524 2.71905 0.0427902
428 1 51.787 25.5843 5.43589 -1.4491 -5.61752 4.15562
26495 1 51.0387 26.7594 6.40543 15.7548 3.09248 -17.0908
508 2 57.1826 27.9432 5.56372 -0.653416 -3.86861 -0.953023
1878 1 60.9934 26.3506 4.8633 -3.54756 -0.367523 -1.77757
1802 1 61.0323 27.2882 6.27704 -0.979246 -3.83471 -1.5125
26504 1 59.8276 26.2882 6.85245 1.51638 -5.517 5.44692
1881 1 62.3348 26.4307 6.90749 -2.36613 -3.15984 -1.76441
1962 1 67.5441 27.8019 5.58389 -1.6304 0.183494 3.05312
26583 1 66.7255 28.4413 6.98913 0.435549 -4.16222 6.68778
597 1 66.4422 28.4429 4.44033 -1.31821 2.16575 -1.18472
515 1 68.8418 27.3099 6.60358 -4.20143 3.54085 5.25161
514 1 69.6325 28.7734 6.18355 -1.76661 -1.53108 0.483731
456 2 73.7699 26.1049 6.46679 -1.75842 -4.39922 1.83729
1894 2 73.5393 28.3826 6.85327 1.01282 -3.71108 -1.06991
449 2 74.998 26.2454 4.73875 -7.66233 4.91094 6.41805
26452 2 5.08282 29.0908 4.82006 1.35448 -0.5809 -0.886978
459 2 5.59528 30.8489 5.68738 0.400681 2.03586 -2.88922
1914 1 16.4959 30.8886 6.19277 0.200365 0.0131037 0.239834
26463 1 18.0541 31.4226 6.04736 0.140181 -0.0170501 0.0892542
470 2 19.3341 31.2708 4.85321 -0.293068 -0.919897 -0.247575
1921 2 19.8274 28.9504 5.53584 0.054453 -0.474366 -1.03758
471 2 21.4743 31.3953 5.58249 -0.807518 0.437731 -0.0203281
1930 1 31.1579 29.0188 5.62193 -1.04558 0.156991 0.0188305
1929 1 31.4773 29.5886 7.1615 -0.808717 -0.590463 1.91435
483 1 31.9292 31.1846 6.86729 0.0558708 0.329885 1.2531
412 1 31.9602 30.2484 4.80184 1.85896 0.590306 -1.39475
1933 1 33.1082 31.0622 5.70202 1.99306 -0.152616 -1.19134
492 2 34.4802 31.0744 4.53171 0.8971 -1.71356 -0.0953052
26563 1 39.7843 28.9039 5.94315 -1.92352 -2.74731 4.54502
26632 1 38.1999 29.4124 6.12684 5.03412 -1.39387 1.98448
1934 1 38.764 30.5557 4.95391 -0.75846 -0.0880563 5.4381
416 1 40.3176 30.4323 5.59682 0.0593369 -1.26712 2.03539
414 1 41.0947 31.4212 4.56221 -6.16596 6.5066 -13.0309
502 2 44.7144 29.8475 6.7626 -0.520118 6.61596 -2.98898
1941 2 43.7512 31.8114 6.75612 -2.02134 6.91175 -2.94783
498 1 49.0937 30.6171 4.89767 7.77623 -7.22072 7.01896
26490 1 49.5968 29.4439 5.98461 2.34071 -5.25107 -0.647899
497 1 49.2191 30.4835 7.20609 -2.14293 4.42945 -6.44474
26491 1 48.6785 31.6689 6.14688 0.365359 -5.46352 -0.947788
26496 1 50.797 30.8667 7.286 1.19217 3.42664 -6.42045
26571 1 52.9818 30.3442 6.6249 -0.951332 0.457194 -4.64331
436 2 55.3909 28.9006 5.21149 2.18839 -1.7904 -1.06382
1946 2 53.5159 29.7346 5.12881 0.582332 -1.29839 -0.12311
26584 2 64.2103 31.7422 5.70956 1.10492 2.35538 1.72008
1958 2 65.434 30.6861 6.93386 0.0219808 1.76859 3.8173
520 1 66.1241 29.4917 5.73666 6.19277 -6.46407 3.92807
26515 1 67.5889 30.3124 5.74447 1.68136 -1.67171 -1.28692
522 1 68.194 29.3043 6.94739 -0.42134 -2.38911 0.0800026
26514 1 67.7046 30.8443 80.4432 -1.31965 -0.128408 2.79899
595 1 68.669 28.8741 4.80436 0.872975 -0.898071 0.7806
525 1 70.5217 30.1767 5.83654 4.16648 0.196476 -3.19585
518 1 69.1924 30.4933 4.84951 -0.377034 0.599266 -2.6703
601 2 72.0113 29.656 6.55315 -5.40862 3.63093 -0.801757
1965 2 73.2894 30.5502 5.20377 0.962273 -0.622496 0.798077
526 2 74.4545 28.874 5.06652 -0.0218777 2.44978 -0.138503
26527 2 6.46895 32.6491 6.02795 0.785792 -0.489673 0.565535
536 2 6.35647 34.4083 7.1156 -0.974466 -1.60068 0.358401
2049 2 4.42649 32.8358 5.78565 -0.129566 0.985819 0.0775537
534 2 8.54189 32.5797 6.29017 0.295005 1.1363 0.716772
26532 1 10.2858 32.673 5.68708 -0.525589 -0.424565 -0.478549
535 2 8.44273 34.4782 7.15472 -0.0629598 -0.00808571 -0.349481
26531 1 11.9292 32.4539 5.59679 0.342567 -0.263113 0.29956
539 1 13.1999 33.5488 5.47915 0.0704493 0.415864 0.0406997
466 1 15.3162 32.0529 6.52063 0.309248 -0.101539 0.0519305
468 1 16.2935 33.3969 6.12254 0.0272382 0.101144 -0.0637775
543 1 15.0449 34.3738 6.73041 -0.599723 -0.47184 0.0370267
544 1 14.3842 34.707 5.23273 -0.311269 -0.358354 -0.0453324
9668 1 13.9887 33.0589 6.90239 -0.246736 -0.259179 -0.234302
542 1 17.0655 34.8078 5.57157 -0.144506 0.437602 -0.229413
26543 2 22.7002 33.0187 5.15336 -0.174807 0.467406 -0.281749
551 2 22.7424 33.5625 7.16972 -0.0291859 0.109525 -0.224068
556 2 24.7577 33.0835 7.18893 -0.0250727 -0.537675 -0.144911
554 2 24.7722 32.6666 5.16909 -0.174214 -0.162688 -0.359118
484 2 28.4759 32.6171 6.58924 0.223844 0.869935 0.0435341
559 2 26.8507 32.4722 5.37632 0.0172379 0.347311 -0.583646
26480 1 31.0205 33.507 5.46289 0.564536 0.409479 1.94662
1926 1 30.3545 32.974 6.94582 -0.100368 0.90466 -0.736879
26479 1 31.8699 32.0679 5.2431 1.56749 0.980583 -1.21901
486 2 35.2455 32.7435 5.44676 -2.45099 0.615947 -0.987724
2006 2 35.9584 34.3205 6.58384 0.760404 0.316348 0.339039
26559 2 37.9512 34.0222 5.98567 -1.57584 1.9366 -1.02709
488 2 36.9173 32.4014 80.5815 -1.18658 -0.98905 1.01256
1940 2 38.1377 31.9622 5.88427 -3.48758 0.0370395 2.97849
2013 2 40.4483 34.9424 6.57995 -1.21246 -0.42643 -1.46957
1939 2 43.0859 33.6814 6.21283 0.943017 3.87084 -8.73227
570 2 44.887 34.5348 6.12199 1.29289 -0.457162 10.873
573 1 47.8108 32.8444 5.31088 2.61917 -1.40694 3.24787
26568 1 49.2385 33.7191 5.15075 -0.423511 3.21842 -2.76467
499 1 49.8125 32.9186 6.52708 -0.0983416 -6.84047 3.90887
26569 1 47.0402 34.0876 4.50341 12.6185 -5.90788 -0.989874
2022 1 52.5168 33.1389 6.20388 -1.46874 3.79708 2.70048
26567 1 51.0938 34.0685 6.5018 -0.211973 -0.192683 6.18093
2094 1 50.7128 34.5687 4.93906 -3.20584 1.10794 2.92281
655 1 53.2377 33.7291 4.79082 0.353127 -0.570917 0.129322
578 1 53.6445 31.8625 6.31841 -2.04908 -0.568699 -2.21501
660 1 54.5889 32.7006 5.17244 0.937026 -1.08729 -0.907908
2025 1 53.6052 34.3243 6.85293 2.35268 -0.833024 2.78179
26580 1 55.8686 32.8908 6.26493 0.263966 -0.183859 -1.11765
577 1 54.7223 33.1777 7.45428 -0.200732 -3.00217 2.2592
581 1 57.2336 32.8298 7.22819 -1.17843 -3.55155 4.92536
588 1 56.7555 34.3863 6.90305 -1.69621 -2.43899 -1.71792
2037 2 59.4413 33.151 5.14011 1.33053 -1.84834 0.981173
592 2 61.4042 32.9019 5.64726 -2.33406 5.29431 -0.629346
1964 2 59.7206 33.1227 7.18982 -5.17079 -1.72193 -4.56004
1957 2 62.7224 32.1376 7.05868 -1.76449 5.15913 -0.719254
26591 2 70.7862 32.0191 6.17909 2.1863 0.744364 -4.68146
600 2 70.225 34.0391 6.01953 0.816934 -0.0330408 0.43364
1971 2 74.3507 32.0932 6.14835 0.293017 -1.00256 -0.292209
524 2 72.2235 32.2368 4.70869 1.40509 0.690629 2.21569
678 2 74.4011 35.0819 6.51922 1.47703 1.31756 -4.15766
603 2 73.2139 33.5154 7.17997 0.0234474 0.169083 -0.672429
26519 2 75.9656 32.8205 7.22787 0.225328 -0.463316 -0.661487
684 2 76.4177 34.8023 6.8022 0.863903 -2.35704 2.37907
1973 2 77.9342 32.3026 7.26999 0.758519 0.0895448 -0.532129
2046 2 80.5202 34.5845 6.93001 -0.637273 0.017963 -0.0376649
26676 2 78.4644 34.9387 6.96843 0.723757 -1.42609 -0.415987
681 1 78.6335 34.961 4.43398 -3.91525 -1.25527 0.506648
26608 2 9.46716 37.8604 5.56057 -0.32749 -0.830298 0.314008
2057 2 12.161 37.264 7.05134 1.19435 0.253042 -0.0603992
613 2 11.3115 37.7832 4.68076 -0.553096 1.31381 -0.13616
620 2 14.2335 37.36 6.12894 0.40887 -0.596294 -0.602708
1990 1 15.7305 35.655 4.98045 -0.374984 0.400803 -0.0247088
619 1 15.7676 36.6019 6.34778 0.0610945 0.648933 0.212032
2062 1 16.9391 35.645 7.03213 -0.266081 0.230307 0.0135277
631 2 23.5227 36.3291 5.91324 0.0812234 -0.137465 0.23237
26547 2 23.1256 34.9322 4.45266 0.159782 -0.0214971 0.0791502
26631 1 30.0482 34.8828 5.44517 1.4924 -0.306163 -3.55925
26552 1 29.6021 35.0511 7.06953 0.453964 -2.55521 2.3231
2005 1 29.2985 36.2821 4.89276 0.157057 -0.00810372 -0.510767
26627 1 29.7212 36.6432 6.51206 -2.25501 1.76067 -0.000605562
2233 1 31.2278 36.0199 5.96013 2.08852 1.88154 -1.78164
640 2 33.1946 37.5275 7.36365 0.704258 0.316423 -0.983879
26557 2 35.8239 35.7794 5.09793 1.39439 4.55729 -0.204305
25191 2 37.8676 35.9097 5.11035 -0.0222788 -0.712794 1.48099
566 2 39.885 35.9082 4.77955 -0.432471 2.29068 1.9681
642 2 40.1595 37.9671 5.02616 0.881373 -0.711642 -0.564843
571 2 42.391 35.5574 6.32425 -6.23549 13.4205 -2.39191
646 2 43.2979 37.9306 4.3663 3.35158 1.55508 -0.113318
26639 2 44.0371 36.3799 5.39741 -3.06646 -9.65588 9.77709
651 1 52.2174 35.3396 6.80492 -3.38089 -6.07812 -0.681276
2098 1 52.3157 35.134 5.11442 -0.127319 -0.254962 2.67609
653 1 53.9151 35.5313 5.61957 -2.83482 -3.87377 -1.39064
2101 1 55.2927 34.9484 4.86985 -0.756005 -0.965376 -0.807481
656 1 53.4487 36.5029 6.9151 1.17914 -0.653768 1.72685
583 1 55.6397 35.5491 6.41257 -2.23453 0.981499 -0.167114
674 2 69.998 36.0275 5.47028 -1.63013 0.437962 -0.834831
598 2 70.4917 36.6297 7.38426 -1.15751 -0.987672 0.139481
599 2 71.7076 34.952 7.17406 0.0519626 0.818739 1.73149
604 2 72.6804 35.2368 5.36443 1.12564 0.139903 -0.398943
26671 2 75.4591 35.3158 4.81849 0.391967 2.78147 -1.07402
26603 1 78.3914 37.5667 6.46707 -0.978676 -3.00059 -0.35161
26604 1 78.5613 36.2239 5.50604 -0.361373 4.0009 4.31782
758 2 6.65324 39.5036 5.31697 -0.31624 0.121006 0.240806
687 2 6.01478 40.6804 6.85182 0.1129 0.222334 -0.801691
26679 2 7.53448 37.9376 6.23703 -0.500152 -0.293775 0.191447
615 2 11.9608 39.0908 6.1173 -0.136054 -0.549106 -0.116351
618 2 13.8302 39.4719 5.34609 -0.871109 -0.264229 0.22742
700 2 15.4286 40.7371 5.6785 -0.231003 -0.0135664 -0.441635
623 2 18.4836 40.3922 4.96285 -0.612245 -0.464932 -1.07234
2069 2 21.7487 38.0076 4.48623 0.437795 0.325344 0.274485
26695 2 19.9604 38.974 4.77441 -0.359628 0.117853 0.114833