ITEM: TIMESTEP
120000
ITEM: NUMBER OF ATOMS
27436
ITEM: BOX BOUNDS pp pp pp
4.3550590178990092e+00 8.0644940982099840e+01
4.3550590178990092e+00 8.0644940982099840e+01
4.3550590178990092e+00 8.0644940982099840e+01
ITEM: ATOMS id type x y z vx vy vz
25996 2 4.75111 5.76981 4.93977 0.469278 -1.62992 0.460834
1372 2 5.11534 4.61533 6.56772 -0.622337 -1.27364 0.878062
12 2 12.8629 4.76496 6.58713 0.318817 0.714992 3.48964
25999 2 13.6311 5.84471 4.9655 -1.07112 -0.0770405 -0.148405
1454 2 14.8862 6.85604 6.27007 0.831248 -1.31669 0.377859
11 2 14.7568 5.08089 7.37124 0.873183 0.331788 0.639794
89 2 16.5919 6.73506 5.031 0.0638506 1.00004 1.15082
1458 2 17.4364 5.50793 6.51875 0.153668 0.324129 0.938724
94 2 18.7355 5.17031 4.65555 -2.5086 0.137525 0.525898
19 2 19.4185 5.92474 6.42612 -1.60103 -0.178153 0.330429
1392 2 20.7941 5.28084 4.68628 -1.69009 0.472491 -0.79936
171 2 19.7811 7.63309 7.54934 0.155054 -0.740591 0.267011
1537 1 25.0664 6.55211 7.16571 1.18267 0.195447 1.51419
1469 1 25.4186 5.08112 6.54219 -1.79397 0.382283 -1.14534
104 1 25.3562 7.29615 5.37397 -0.676655 0.501989 0.807372
99 1 26.4605 6.23083 6.00182 -0.00432756 -0.373093 -0.236159
1545 1 27.5842 7.12515 6.86008 0.0809532 1.40231 -1.06511
27 2 30.7717 4.81769 4.86167 -2.45051 -0.167145 0.296731
31 2 32.4565 5.74194 6.87719 0.787794 1.93764 -0.244073
29 2 32.7922 6.68659 5.07856 1.4674 -1.18522 1.0876
1398 2 32.8387 4.68011 4.88569 -1.06043 -0.752066 0.334685
1481 1 39.4187 5.75828 7.08467 0.421259 -0.100783 0.169883
26028 1 39.7289 4.58046 5.92842 -0.996145 2.22914 -0.893772
26107 1 40.7964 6.61145 6.51152 0.253252 0.835474 0.407735
26032 1 40.962 7.06555 4.90915 -0.796902 -2.41191 -0.0380805
1482 1 41.3005 5.12923 5.82112 -2.05967 -0.117939 -0.477562
115 1 43.7747 4.94992 4.82914 0.498735 -1.86712 2.40686
1412 2 44.7788 4.74169 6.14369 1.43905 0.973455 -1.16978
1410 2 46.6187 5.26694 5.39245 0.628997 -1.17812 1.42797
2862 2 52.3927 4.89955 4.50393 0.685565 3.46161 0.469943
1420 1 54.8445 5.44596 6.96262 -0.435173 0.76548 1.33202
26044 1 54.4126 7.08565 7.08507 -2.95664 -1.57579 4.83097
27416 1 56.3823 5.98694 6.48542 -0.979569 -0.125404 -0.544597
53 1 58.574 7.10301 6.65053 1.76765 -0.548224 -1.70395
26047 1 57.9102 5.61155 7.11762 -0.153746 1.19405 -1.96111
55 2 58.6509 4.9077 5.61499 -0.109202 1.44284 0.630681
1425 2 62.7096 4.79737 4.62016 0.168764 -1.86596 -0.552172
60 2 62.4661 5.47821 6.56512 1.28314 -0.912333 0.832188
1502 2 62.7537 7.48853 6.10441 0.445496 1.42644 0.391424
26127 2 63.3082 6.73879 80.5488 -0.341275 0.122464 1.45296
27420 1 68.0923 5.83972 5.47604 -2.13049 -8.22161 3.90694
133 1 66.6543 5.22776 4.82123 4.65241 1.25282 1.8894
26055 1 67.5349 4.93681 7.06217 -0.880715 4.93797 0.00600888
1430 1 66.0264 5.24248 6.3844 1.28342 0.57839 0.511471
1426 1 68.3216 80.4247 5.87246 -5.00797 -2.50017 9.50859
1436 1 69.0011 6.91165 6.44116 0.143477 -2.07918 1.06999
67 2 73.4652 5.49795 6.0957 -2.09236 -1.65707 0.117565
69 2 73.2475 7.4544 5.44476 -0.311789 -0.950492 1.00851
72 2 75.4545 5.88434 6.44597 -0.229237 0.0448686 -0.189481
1448 1 77.159 5.59504 6.35345 2.9152 -1.20571 -1.08013
75 1 77.2644 4.43615 5.13323 2.58925 -2.27863 -0.257704
76 1 78.8123 5.46916 6.05077 -0.759114 1.20485 -0.267614
4 1 79.841 6.76713 5.72629 1.1052 -0.468871 -2.90378
79 1 6.5115 9.4509 5.90876 1.33231 1.05276 0.106979
1522 1 5.33112 8.93301 6.97183 -0.29207 -1.2799 -2.14419
1521 1 4.73281 7.97005 5.74777 -0.111821 1.34464 -2.2582
81 1 5.96069 8.23526 4.64798 0.136306 0.888126 -0.589058
26071 1 7.29281 8.02463 5.59952 -0.83822 -1.31575 0.526194
227 1 7.44974 9.98074 7.20754 -0.581507 0.301735 -0.613473
1525 1 8.75682 9.99976 6.11701 -0.631349 -1.90133 0.240846
26075 1 8.86827 8.50995 5.2931 0.976297 -2.69761 0.0467445
1529 1 10.4754 8.95033 4.93888 0.127564 -1.94261 -1.86607
87 1 12.6766 9.34732 5.81493 1.29706 -0.0445502 -0.727517
1527 1 11.1322 9.22319 6.48927 0.427832 0.124893 -1.95514
1533 2 15.0992 8.85191 6.76944 0.0691076 0.563976 -0.0714744
1457 1 14.163 9.59639 5.05837 -0.000829962 -1.39398 -1.60308
26008 2 17.0739 8.76508 5.23709 0.473631 -0.4737 0.304984
96 2 18.7323 8.9842 6.37677 -0.202711 -0.340645 1.30372
1468 2 20.5124 9.69899 5.66473 -1.00131 -0.492984 -0.690256
26088 2 21.5878 8.83712 80.4519 1.32754 1.11023 -1.31902
22 1 24.6398 9.63877 5.57881 -1.34381 0.0400136 -1.12123
26091 1 25.6343 8.60991 6.38463 0.913645 -1.75649 1.81537
30 2 33.8379 8.40939 4.78678 0.602414 -0.482483 -0.73359
1629 2 34.7162 10.1263 6.03844 -0.000154023 -0.552466 -0.430805
32 2 34.6935 7.65002 6.50439 -1.60339 1.00301 -1.62564
1559 2 41.86 8.27982 7.54225 -2.52496 1.61218 2.96578
1489 2 47.8472 7.08947 7.82525 5.69533 -1.81718 0.974276
128 2 50.4199 8.69135 7.06643 -5.80024 -0.132117 2.22696
26115 2 51.7623 8.90675 5.48762 5.11925 3.45406 -7.11182
122 2 52.5704 10.1111 6.98274 2.42514 -1.07364 -4.02499
26195 2 54.3829 9.00342 6.86499 1.21039 -1.65761 3.64929
26120 2 53.6675 8.96476 4.92308 4.50993 -0.959762 -4.99203
126 2 55.6345 8.45994 5.31324 -6.40703 -0.596541 0.610328
26123 1 56.8225 7.40928 7.29331 0.300466 -0.693853 -0.387259
26045 1 57.4866 8.13197 5.92982 1.2223 -0.998303 -1.46885
26048 1 58.7966 8.68816 7.11008 1.36685 -1.56291 0.220017
140 2 62.9004 9.45946 5.36628 0.0799095 2.01684 0.14667
64 2 62.9519 10.2902 7.26526 0.8162 0.220213 0.46304
26131 1 69.8964 9.49787 4.63631 0.28169 -2.19431 -0.733312
68 1 69.3552 8.04104 5.25775 -0.20526 -0.0607397 0.874065
26060 1 70.0334 9.1847 6.30094 0.124224 1.68992 -1.2659
145 2 75.5746 9.26107 6.21305 0.262056 0.1895 -0.456697
147 2 74.6517 8.66812 4.47846 0.408129 -0.816735 0.272194
150 2 77.5355 9.90989 6.26372 -0.400617 -0.887862 -1.6015
74 2 78.5614 8.12313 5.96505 -1.41815 -2.38292 0.476642
8 1 9.88777 10.5481 4.98006 -0.115382 -0.325982 0.273339
83 1 10.0993 12.0557 5.63136 -0.910288 -3.11953 -1.20881
1456 1 11.0412 10.92 6.36002 0.43994 -2.51126 -1.65701
1526 1 12.6706 11.05 5.95214 2.02232 3.06323 -1.05108
1605 2 12.8851 12.9714 6.475 -4.17378 1.49716 -4.87209
1620 2 20.0764 10.8014 7.35747 -0.193289 -0.462542 0.9942
97 1 23.4879 10.7329 4.99326 0.692757 0.461765 -0.131141
24 1 22.7415 12.1859 5.5059 1.0476 2.93887 -0.42717
95 1 24.8055 11.2901 5.86805 0.20503 -4.38358 -0.304616
26167 1 24.2779 12.8672 5.73388 1.20671 0.989492 -0.356578
26171 1 27.3103 13.5731 5.83516 0.417494 0.223825 -0.108732
26096 1 25.6876 13.6544 6.07981 0.0128397 1.36903 0.299816
181 1 28.9261 13.234 5.71937 -0.211243 -0.20224 0.116242
112 2 32.0219 12.0092 5.59845 0.748091 -0.360319 -0.0790703
1625 2 32.7457 10.3882 6.67267 0.335999 0.0120441 0.72912
184 2 33.2033 13.165 6.85988 -0.416587 0.349468 0.024265
185 2 34.7735 12.2061 5.90094 0.611872 -0.172667 -0.375379
259 2 36.1725 12.5222 7.35221 -0.913939 0.706154 0.0247214
189 1 37.6639 12.5195 4.49753 -0.74524 0.848612 1.13549
26180 1 36.6059 13.4324 5.75609 -0.470039 0.341232 1.02977
26108 1 38.0883 11.113 5.30783 1.40901 2.00915 0.554087
187 1 38.8644 12.0054 6.51139 -1.00299 -0.524889 1.57051
1631 1 38.2417 13.5332 6.13668 1.16238 -0.212847 1.04832
1557 2 41.464 13.144 6.27616 6.6322 3.87974 -7.29092
26116 1 46.6949 11.0211 80.7944 -6.88968 -6.78014 12.9234
195 1 44.8532 12.1278 5.82604 -2.22918 18.9997 3.83655
1562 1 44.765 12.8764 7.27564 -7.56227 -11.6371 -8.80024
26111 1 46.27 11.1627 6.03952 4.1117 -13.4447 20.542
114 1 44.9547 11.2552 80.6141 6.5483 11.3879 9.94012
26114 2 50.6349 10.7452 6.55813 -5.69638 -5.81753 7.51902
121 2 51.0185 12.6733 5.72552 -10.2938 8.48801 0.908073
124 2 51.592 13.0223 7.60057 5.62347 -1.50762 -15.5975
197 2 51.1114 10.6025 4.56586 -4.71779 -3.91672 13.9253
26191 2 53.0885 10.9383 5.03563 -9.26274 -5.67647 -27.8444
26199 1 58.3507 12.5875 5.91561 2.23438 0.914017 -1.60361
1651 1 57.1223 12.9292 7.03991 0.799823 1.28636 0.134158
1721 1 57.5022 13.1498 4.55108 1.4481 -1.61897 -4.45642
208 1 59.4324 11.9598 4.81878 -5.8218 0.0138743 0.235603
1654 1 60.5885 11.9467 6.06884 2.6803 -1.52661 0.541576
1657 1 59.4857 12.5938 7.20788 0.957107 0.632317 -3.82285
135 1 61.6252 11.4829 7.287 -0.646737 -1.68964 -2.21003
136 2 62.0551 11.225 4.64868 0.917455 1.96387 3.88115
217 2 66.2865 11.3602 4.75221 1.64845 1.01788 1.3139
26212 2 66.9481 12.2489 6.46708 -0.831111 1.39354 1.41082
26132 2 66.2148 13.6131 5.16129 -0.0980816 1.16102 -0.44298
1590 1 73.6066 12.23 4.80559 1.10342 0.0732596 -1.40047
223 1 72.0204 11.6621 4.67609 0.694137 -0.668277 -0.17138
1666 2 77.0124 10.7269 4.41856 -0.286625 -0.0364552 -0.232727
152 2 78.9023 13.0817 5.62665 0.00462685 -0.109316 -0.0185651
155 2 4.42901 13.8515 5.04844 0.342609 0.129952 0.404892
228 2 4.61987 14.8085 6.88288 -0.2331 0.504486 -0.171649
26147 2 5.65782 16.2993 5.88854 -0.991803 -0.191261 -0.725653
1598 2 5.90866 15.0752 80.5453 0.877018 -0.675051 0.239941
163 1 10.4659 13.5979 6.10251 2.72739 -5.10648 -12.1803
162 2 11.8812 14.0361 5.02607 0.394462 -2.70113 -4.53523
88 2 13.3788 14.91 6.45118 -9.27997 -3.55043 3.93017
1611 2 14.8067 15.0504 5.07265 4.07828 4.99911 0.944734
243 2 15.9849 15.2582 6.7675 -12.2683 4.88626 -8.34362
92 1 15.6359 13.8428 4.40961 1.11433 1.66711 -1.30004
1614 1 21.0295 13.623 4.6189 0.422151 1.5616 -0.660237
1613 1 22.1076 13.7168 5.97667 1.14099 -2.08338 0.00615957
26239 1 21.71 15.346 6.43522 -5.06971 1.42801 -1.89061
26168 1 22.1975 15.5614 4.82902 -1.52576 1.08471 -2.1001
174 1 20.5523 15.2062 4.93581 1.94482 -0.207275 -4.46882
26163 1 23.5175 14.2945 5.23047 -1.99359 0.710105 -1.4697
1697 1 28.5973 14.1974 7.04382 0.796208 0.0242064 -0.202161
178 1 27.5297 15.0303 5.05305 0.135488 0.391914 0.225503
26176 1 28.9004 15.463 5.94222 3.64435 -0.596151 -0.405594
255 1 30.375 15.8319 6.61025 -1.9171 -6.51822 -1.57093
179 1 30.2384 14.3757 7.40414 0.998225 2.10629 5.3681
1701 1 31.8686 14.1055 7.27261 -0.322849 -3.65308 0.998613
183 1 30.082 14.4144 5.4128 -1.86938 3.16327 -5.71396
3219 1 32.2449 15.6505 6.78089 1.58229 -0.834497 -3.16178
1630 1 36.115 14.968 6.26813 -0.350107 -1.25887 0.00457168
264 1 37.1769 16.0532 5.57896 -2.24287 0.204963 1.16346
335 1 36.379 16.6689 6.92462 0.374586 -0.110065 -2.75749
1706 1 38.2677 15.1616 6.53941 0.171147 -1.06372 -0.703048
1636 1 39.4293 14.297 7.35527 -0.52423 -3.12348 3.18295
113 2 42.2867 14.0515 4.66764 -1.11406 1.78305 -1.62801
192 2 42.6658 16.0017 5.03517 -4.94406 9.84552 0.818625
200 2 50.9603 14.3212 4.83184 4.36387 4.18709 1.21989
275 2 50.5036 15.8026 6.15116 -2.01554 4.1158 5.62428
1642 2 51.8549 15.0882 7.51634 0.282825 0.52243 1.14809
203 1 56.6743 14.4386 5.34423 0.262392 2.02979 2.86023
207 1 57.3119 14.6025 6.8621 1.13215 0.382375 1.43831
287 2 62.268 16.3765 4.63441 -1.76847 -1.09049 -1.29245
1733 2 64.1803 15.7558 5.69056 1.24417 -0.50983 -0.944582
1661 2 66.0942 15.3119 6.4009 -1.44872 1.30599 0.593452
1737 2 68.1124 15.8805 6.25842 -0.116402 0.312219 -2.27397
295 2 69.0787 14.0472 5.95916 0.52139 0.435441 0.180235
218 2 70.584 15.2873 5.18849 0.987096 1.31004 -0.352318
224 2 71.0992 16.1842 6.98095 1.20253 0.100597 1.50995
148 1 74.0339 14.0326 4.81385 -0.180143 0.151298 0.692212
373 1 73.9251 16.4189 5.35664 -0.0615797 -0.85652 0.617389
300 1 74.7639 15.0847 5.9081 1.56749 -0.801231 0.117242
1742 1 75.5623 16.493 4.99805 -0.481993 -0.00479279 -0.9329
232 1 77.2347 16.4059 4.94654 -0.914916 -0.0814024 1.08157
305 2 78.8706 14.8893 6.5964 -0.524036 0.0690625 -0.529937
1819 2 78.9542 16.462 4.95067 0.0309771 -0.859203 -1.76541
158 1 6.88267 17.5216 5.1214 -1.1006 0.402787 -0.751444
1674 1 7.34002 19.0283 5.76784 1.71606 -0.860012 1.7957
1681 1 10.0852 16.7728 7.0959 -2.60875 0.652164 -1.69312
231 1 8.48331 16.9248 5.13773 0.412718 1.32069 -3.96059
1753 1 7.9964 18.1747 7.09563 -1.0368 -0.79043 -3.40908
1746 1 9.37129 17.9189 6.12832 1.36813 1.62463 -2.51439
236 1 8.88554 19.1296 5.06553 0.776533 0.975895 -1.04075
26152 1 8.42061 16.5787 7.11635 -4.2413 3.6483 -0.472055
240 2 12.8053 19.2729 6.36922 0.198986 -0.350477 -2.25415
26235 2 17.7316 16.5499 6.83319 11.5646 7.95402 0.681415
26312 1 17.4905 18.6798 5.20367 0.324083 -0.902992 0.845139
26237 1 18.7077 17.4938 5.36982 -0.113101 -0.964431 2.12189
26311 1 19.5991 18.5441 6.38014 4.99751 -2.33203 -1.54353
244 1 18.1744 19.3432 6.58329 3.04916 0.270776 -0.335243
252 1 21.2886 16.9317 6.96485 0.601342 -3.59259 1.80748
397 1 21.1146 18.1471 5.81812 7.99847 -0.135864 -6.19399
400 1 21.6701 19.267 6.94826 -5.12465 4.07817 -2.4592
251 2 27.3902 18.9652 6.5053 -0.243309 0.66935 -0.147941
331 2 27.6781 17.7737 4.87935 -0.639191 -0.615132 -0.996913
1704 1 31.3756 16.9604 7.36602 1.55534 0.562485 0.923722
339 1 34.1356 19.5766 6.41737 -2.11832 1.66951 -0.36129
411 1 34.6542 18.8555 4.99673 -1.03957 0.49451 -1.16736
1857 1 36.3113 17.1413 4.65478 -1.52735 2.09509 -1.75618
26327 1 35.5619 17.819 6.00567 1.28961 -0.41141 0.588477
1779 1 34.8806 18.4555 7.42495 0.496153 -0.637173 0.541525
341 2 43.2439 17.8488 5.55789 1.40843 4.16027 0.725109
1785 2 44.0035 19.1394 6.98175 -0.0966603 -2.5139 -0.94062
196 2 48.91 16.5721 5.11709 0.492157 -0.804077 1.25578
1638 2 48.6347 17.6027 6.90432 -0.661974 1.38152 0.352752
1718 2 50.6864 17.4938 7.08534 -0.713153 11.0995 7.47454
280 2 53.8744 17.8648 6.03105 -0.00660842 0.629338 0.688764
26272 2 55.677 18.6641 5.42618 -0.282765 0.363618 0.862077
1797 2 54.2015 19.5312 7.2078 0.103022 0.0383986 0.32297
26353 2 58.5536 18.602 4.86308 -0.00880931 -0.296462 -0.755442
367 1 65.5939 19.652 5.32769 -0.127325 -1.68086 -1.3068
296 1 66.1294 18.6092 6.51183 -0.622678 -0.404776 -0.305968
26287 2 69.4434 17.0168 5.10625 0.0156734 1.3536 0.246234
26291 1 73.7622 16.8115 7.00036 -1.4082 -0.682276 0.169175
297 1 72.3113 17.5661 6.6025 -1.17266 -1.4569 1.07029
26363 1 72.4768 17.2061 4.99106 -1.54126 -1.69161 -1.81292
303 2 79.1562 16.8664 6.96743 -0.287295 -0.475322 -0.943884
26304 1 6.84166 19.7737 80.6153 0.537657 -0.263975 2.565
311 2 8.59426 21.5059 5.86709 -0.902345 1.42199 -2.24574
26232 2 10.3693 22.4972 5.78836 -1.0398 -0.0580853 -0.383008
237 2 11.4878 20.9369 6.51077 2.26282 1.79961 0.394012
313 2 12.7891 21.9803 5.26941 -3.20703 -0.156567 -8.5885
238 2 14.0208 20.3357 5.09082 -6.81404 4.05148 2.53505
391 1 16.2603 21.9132 6.90458 -1.31477 -6.4499 4.31713
26231 1 15.3525 21.2951 5.60485 4.76686 -0.284243 -1.24391
26236 1 16.4038 20.0191 5.15133 0.843547 -0.335254 3.49967
1761 1 17.0646 20.5038 6.66082 0.226259 -2.99812 0.43034
1769 1 20.1432 19.869 7.21359 -3.63152 4.87129 0.344215
328 2 24.7147 21.6423 6.88938 0.399867 1.27316 1.22701
1762 2 23.045 20.5801 6.43265 2.52942 2.05199 -1.56217
256 2 26.2956 22.3454 5.73837 -0.301847 2.20847 -0.664767
26319 2 27.9149 21.0416 5.72185 0.426622 -2.00959 0.0131099
24951 2 29.3393 22.3641 5.05607 0.573455 0.166884 -0.0204652
326 2 31.1915 22.9518 80.5262 0.2748 0.153318 -1.23544
1778 2 35.653 20.5113 6.40407 0.16417 -0.136463 -0.399706
1702 2 35.7562 22.3627 7.28204 0.256647 0.2661 -0.492801
1784 2 37.4835 20.0481 7.19618 -0.498512 -0.260521 0.405324
343 2 38.9589 20.9385 5.68702 -0.0269893 0.442452 0.520329
26407 2 37.9175 22.4726 4.82506 0.219183 0.966224 0.822685
1786 2 40.2986 22.3468 6.50162 3.0617 -2.46223 1.53564
268 2 42.7909 20.085 5.59456 -1.45446 -0.136793 1.72469
1783 2 41.4676 20.7321 7.03886 1.65226 -1.99917 1.50598
356 2 49.0974 19.47 6.17396 -0.19139 -0.0264702 -0.220775
26419 2 50.0581 21.0402 5.26265 -0.408089 0.920357 0.258625
353 2 52.018 20.5491 4.79834 3.18216 -0.80383 -1.29168
1800 2 52.3498 20.3781 6.84246 1.09086 2.1052 -1.01857
1794 2 50.6536 21.5245 7.18672 0.816348 -0.359584 1.71695
355 1 54.318 21.9243 4.5778 0.655215 1.09916 -0.714366
357 2 57.3295 19.8009 5.89193 -1.21584 0.198876 -0.0628528
26357 2 59.1372 20.6734 5.47776 0.416101 0.880375 0.986004
1729 2 60.189 20.1921 7.22135 -0.732889 0.679741 -0.546575
368 1 63.21 22.4644 6.45348 -0.24089 -0.0615461 -0.0911117
365 1 64.0771 22.6765 5.05418 -1.13311 0.517619 -1.35841
1809 1 64.8949 21.2017 5.187 0.748842 0.0686565 -1.0536
1730 1 63.7027 21.0112 7.14059 -0.537473 0.599612 0.429177
363 1 65.2345 21.6416 6.79018 -0.248376 0.0406312 -1.13195
291 1 67.1852 19.9976 4.88715 -0.0123323 -0.00710643 -0.419749
1734 1 66.0078 20.1655 7.08632 -0.962749 -0.096631 0.790243
26360 1 66.781 22.3579 6.641 0.532148 -0.221671 -0.21398
1813 1 67.4154 20.8116 6.37107 -1.53385 -0.729989 1.89361
366 1 68.2916 22.194 4.50886 -0.385579 -1.58287 -1.116
369 2 70.9414 19.9379 5.31927 0.379382 0.531285 -0.146854
1814 1 68.8627 21.6125 5.99513 -1.63164 0.212621 0.441416
371 2 70.5474 21.9586 5.48357 0.430713 -1.04537 -0.15483
1738 2 71.928 19.7098 7.07567 -0.874484 -0.336221 -0.705664
1817 2 73.0531 20.6612 5.66021 0.46988 0.285469 -0.594943
447 2 72.3294 22.2464 4.50557 -0.252253 0.38301 -0.121426
1893 2 74.9785 21.2808 5.27127 -0.0617808 -0.761858 -0.529606
26375 2 8.04388 23.4709 5.49692 0.802974 0.397822 -1.46772
307 2 8.05481 25.5505 5.56154 -0.0845046 1.79971 0.587682
26308 2 12.0502 23.8279 5.71851 4.47951 -4.34484 10.7068
26384 2 13.4328 25.3798 5.61729 0.712045 -1.76873 -1.18255
26383 2 15.0604 24.3371 6.4644 -1.60642 -3.65903 -0.0374008
1768 2 17.2581 24.4122 6.04476 2.43691 0.855469 -2.67602
395 2 19.2464 24.6868 5.49855 -2.72804 1.26493 4.00941
26390 2 22.5067 24.9974 4.5828 0.0765589 1.33129 -2.40638
477 2 22.7079 25.292 6.56258 -0.134903 -1.97478 -0.813258
26399 2 23.7265 23.4794 6.65856 5.14326 0.127738 0.814028
26393 2 24.4587 24.3946 4.93596 0.0670684 1.85642 -0.19329
406 2 26.4731 24.3275 5.23346 -0.689686 0.183507 -1.12181
325 2 27.1715 23.1345 7.49191 1.31499 1.80744 -0.0551324
327 2 28.3446 23.9416 5.98198 0.388479 -0.987323 -1.81442
26397 2 25.5676 25.8191 6.26122 -3.31859 0.281042 1.8395e-05
26328 2 33.0737 23.2166 4.89921 0.118056 0.0660723 -0.847571
1849 2 35.0053 23.3983 5.63932 -0.333697 0.57462 0.0622237
340 2 37.364 25.0477 5.51721 1.18405 1.12425 -1.17074
408 2 35.6388 25.1021 6.63927 -2.382 0.164044 1.03813
338 2 39.0012 23.861 5.92892 0.506564 -1.88912 -0.353446
344 2 40.1824 25.2796 6.80855 0.714393 -1.22517 -0.249838
26413 1 42.9574 24.9446 6.69612 -1.22205 -0.449095 -0.0692078
342 2 41.6542 23.8692 6.86803 -1.88823 0.699052 0.703155
421 1 46.5328 25.493 7.40809 2.96865 -0.69958 1.8168
428 1 49.3735 25.0089 5.93555 0.782989 1.88735 -0.219754
427 1 49.5872 23.959 7.26319 0.213997 -0.700927 -1.39392
431 1 52.8903 23.9103 6.82871 0.599929 -0.785342 -0.0637977
1873 1 51.6155 22.8792 6.93824 0.403954 -0.177684 -1.4398
1871 1 51.1993 24.4399 7.27361 -1.33431 -0.768334 -0.265524
1798 1 53.6754 22.8907 5.7549 -0.189205 -0.955932 -0.421297
26423 1 54.9664 23.5787 4.9933 0.237728 0.756991 0.720825
1953 2 55.6752 25.3226 5.34117 -0.288919 0.111388 -0.972302
439 1 63.5414 25.0822 5.81684 -0.568455 -0.418742 1.40754
1806 1 64.2676 23.732 6.55008 -1.44177 -0.114818 -0.348718
26351 1 63.4578 24.116 4.42694 0.344065 -0.514 0.542508
26359 1 66.813 22.7917 4.98922 0.626835 -1.37222 -0.894058
443 1 68.0536 23.8193 5.37212 -1.85508 -3.6333 -2.09272
1810 1 68.3525 23.0257 6.83265 -0.509263 0.113692 1.50207
26435 1 68.7018 25.1358 6.04818 -1.43533 -10.351 -2.67523
376 2 74.5353 24.1395 5.24017 -0.41444 0.471123 -0.0560471
1821 2 75.5863 22.8266 6.49628 -1.82985 0.99634 -1.17967
374 1 77.4726 24.6995 6.88227 0.0609602 -1.0262 -1.13797
26372 1 78.6365 25.4197 5.90892 -1.56381 2.06207 0.729902
26447 1 78.7621 23.2531 80.607 0.231199 0.256259 -0.0366589
26451 1 8.96571 27.9767 7.24726 1.51587 -1.86124 0.350188
1909 1 9.50387 26.3922 6.91179 5.67372 -0.0783538 1.01801
464 2 7.595 27.7712 5.6338 3.348 1.14679 2.01043
386 1 11.6849 27.508 6.80579 -3.03506 -4.51721 -6.32025
465 2 12.0637 26.7548 4.9938 -3.50258 3.27793 0.793738
1837 2 16.1355 26.0454 6.52374 -1.45907 1.9473 2.21705
393 2 14.8563 26.8723 5.16606 -3.51739 2.36919 -1.81586
1839 2 17.1992 27.77 6.8925 -1.04859 0.389103 2.39519
1921 2 18.7333 27.3794 5.53461 4.01408 2.69387 6.69571
399 2 19.816 26.032 6.98443 -3.74404 10.8472 1.76517
475 2 21.3848 26.6218 5.69176 -0.928679 -1.21694 0.782079
549 2 20.413 28.2052 4.75972 4.49435 -0.407611 -0.726231
1930 1 33.7543 28.3284 6.22661 2.18938 -0.428864 -0.934823
26475 1 32.871 28.2429 4.75696 2.24084 1.62752 -1.90199
487 1 35.3135 27.6721 6.06883 -2.67017 -0.099335 -3.20138
1854 2 35.4655 26.2694 4.93237 -2.72203 1.61446 0.202102
416 1 36.9787 28.3717 5.77806 0.360452 -0.497594 -1.57122
26408 1 37.909 28.3085 80.6596 4.73175 5.09726 3.82225
26336 1 44.415 25.753 6.46544 -0.630317 0.201348 -0.311894
418 1 45.9533 26.3242 6.059 1.87689 -0.0803637 -0.38762
26487 2 45.3518 27.6092 4.96261 4.7755 -5.11773 -0.206539
26411 1 48.094 25.6316 6.83687 1.51473 0.250677 -0.24761
345 1 47.5266 26.3503 5.42806 1.87736 -0.736532 -1.06305
26495 1 49.8746 26.5386 6.50643 0.966046 -1.53283 0.820129
426 1 49.1772 27.2081 5.10903 -0.578248 0.625809 -1.17891
1947 1 49.1599 27.7968 7.42244 0.0277066 -0.813706 -1.07234
26424 1 48.7897 25.7092 4.50827 0.787468 1.38599 -1.68768
436 2 53.4432 28.4471 4.36862 1.24278 -0.212013 0.311347
1877 2 54.7285 25.9878 7.07792 0.931413 1.65367 -0.320364
507 2 54.3466 26.6169 4.40604 0.037051 1.77456 -0.901286
1874 2 54.841 27.7601 6.00643 -0.656643 1.28859 -0.56177
1950 2 56.7105 27.1183 5.38686 -0.189875 0.470008 0.654607
1949 2 57.9017 28.688 4.90878 -0.298254 -0.360215 0.112253
26504 1 59.5428 28.3733 5.47706 1.00354 -2.01497 -1.51461
1802 1 61.0578 27.8836 5.96963 -0.638787 -0.00747814 0.39211
1878 1 61.1451 27.0526 4.49994 1.20875 0.58867 -0.0460584
1881 1 62.5185 27.2588 6.54069 -0.355861 -0.557662 0.787429
26356 1 62.4971 26.2588 5.15862 -1.10188 -0.0917228 0.987043
1883 1 63.7706 26.2662 6.99834 -0.331145 -0.411082 0.374478
522 1 68.2554 29.0446 5.92077 0.121628 0.264406 -2.38487
26516 1 68.9288 28.1762 7.15099 -4.43612 -8.24504 0.0835335
515 1 69.0053 26.6094 6.60195 4.28442 -2.32868 -1.93886
456 2 73.4338 27.0772 4.53226 0.593832 -0.565582 -0.406231
1974 2 75.4557 27.7653 6.62641 0.389915 -0.2873 -0.596628
26521 2 75.077 26.1541 5.40933 0.199751 -0.876483 -0.751419
1897 1 78.6404 26.4372 7.2404 2.60135 -1.24963 1.10723
459 2 5.72433 29.8648 6.21819 -2.1918 -0.503935 -1.28546
26452 2 6.6346 29.2106 4.52376 1.35724 -0.693377 -1.24594
538 1 11.36 31.665 4.67596 3.43384 3.23231 1.25552
466 1 15.1226 31.2088 5.74171 -3.8108 -0.572504 2.88088
469 1 16.2968 30.013 5.82765 0.0266813 -3.18257 -4.09407
26460 1 15.0453 31.2165 7.4058 -0.578443 -5.08253 -1.33977
1914 1 18.5458 30.5124 6.3915 -2.4445 1.84518 3.0655
26463 1 17.4951 31.0025 5.21776 -3.42929 -0.0886348 -8.43543
473 1 17.1902 30.0205 7.24309 -3.55695 -4.55571 3.33309
471 2 20.2198 31.7562 4.82526 0.306172 -1.33663 1.39233
556 2 24.4208 31.8387 6.74369 -1.83292 0.704953 0.913555
26479 1 31.5656 31.2147 5.62289 0.0337688 -0.321734 0.0395827
483 1 31.5181 30.62 7.19418 0.377576 -0.183815 0.273971
1929 1 32.6191 29.417 6.814 -0.0873656 -1.09114 -0.664631
412 1 32.1008 29.6665 5.22876 -0.0135811 -0.430818 -0.438863
1933 1 34.455 29.6315 6.99587 0.704249 -0.398788 0.0403122
492 2 34.7297 30.701 5.4704 -1.13279 0.0555859 1.32127
26632 1 35.9753 28.8887 6.9733 0.404085 0.66045 -0.89728
491 1 38.1452 29.4289 6.40684 -1.39226 0.947574 0.736477
496 1 39.7933 29.1025 6.58467 -2.42581 0.702673 -0.701491
1938 1 40.06 29.0496 4.92276 -2.76427 1.59056 0.500265
26563 1 38.5753 29.7733 4.81464 0.0923 -2.02165 -2.04069
26412 1 41.0608 31.2303 4.68515 -0.598219 -1.30092 -0.182026
502 2 45.11 28.8175 6.60389 0.672586 -2.62795 -0.694317
1945 2 46.5674 29.4949 5.34451 -5.33405 2.4052 0.647774
503 1 48.88 28.6617 5.96661 -2.69205 3.11079 0.160339
1942 1 47.9813 30.0381 6.55002 1.06462 0.772469 0.294071
497 1 48.6438 30.8815 5.21636 3.67259 -2.76543 3.75084
575 1 49.727 31.0197 6.49088 4.91964 5.9594 -0.438205
498 1 49.2089 29.5041 4.51539 2.69768 -0.731582 -4.12981
26571 1 52.8961 30.7465 5.7934 -0.647834 -1.96913 0.835713
578 1 53.9349 31.757 4.95627 -2.99802 0.980139 1.37988
26583 1 66.9742 29.0703 7.00658 4.24096 -5.25545 1.74325
520 1 66.4128 30.3594 6.08395 -1.66091 9.44929 -2.13844
26515 1 67.8458 30.4461 5.20729 0.254756 0.441616 -1.36025
514 1 69.3788 30.7927 4.54446 -0.936556 0.926529 0.59205
525 1 71.0694 30.7958 4.60235 -1.37117 1.1356 0.617927
1894 2 73.7231 29.1219 4.64714 -0.235276 -0.386315 0.0221622
601 2 72.8568 30.9252 5.02079 -0.316255 -0.319498 -0.369371
450 2 75.7188 28.7757 4.86301 -0.0852151 -0.217008 -0.160018
526 2 74.8871 31.0535 4.9696 -0.305263 -0.298834 -0.123568
26527 2 5.50669 31.9181 6.42562 1.09094 -1.85902 -0.584006
534 2 7.56026 32.0128 6.23606 -0.483571 1.05882 -1.2058
535 2 7.71762 33.8313 7.21998 0.787795 4.29806 -4.66586
26532 1 9.28658 32.0638 5.77514 1.95649 0.329233 -0.336292
26531 1 10.9246 32.3302 6.14374 1.42452 -0.574604 1.70923
539 1 12.3729 32.6119 6.93703 0.863639 1.90327 1.97127
544 1 13.2641 33.5503 5.88196 -4.4678 -6.18809 -1.24293
468 1 15.501 32.8249 5.31462 4.21667 2.51646 3.12166
543 1 14.6665 33.2501 6.76806 3.51398 2.15682 4.16871
1990 1 13.9339 34.8278 5.07293 -3.73783 -3.91464 -1.20974
542 1 15.5517 34.4355 4.74453 0.93182 6.47863 -1.27215
547 1 18.2399 32.004 7.07597 2.36825 2.48276 -7.8941
548 1 16.7521 33.9799 6.74156 -3.11978 -6.32301 1.86434
2065 1 17.083 32.532 5.94206 1.18295 0.151229 -2.2786
476 2 19.8681 32.6411 6.64336 -0.146652 1.18053 1.59659
26543 2 22.1579 32.5374 4.82997 0.110312 -0.904811 1.53777
551 2 22.4151 32.2099 6.85614 -1.69621 -0.0884696 1.87305
554 2 24.615 32.5529 4.82751 -0.337041 -0.706231 0.595078
26547 2 23.1242 34.3259 4.51047 -0.415141 -0.991906 0.979343
1922 2 26.457 31.9266 7.10284 -0.578951 1.05727 -2.25775
559 2 26.6862 32.4568 5.15894 0.0284501 0.203578 -1.095
484 2 28.3741 32.2709 6.38343 -0.289129 0.533675 -0.937521
26480 1 31.0741 32.8266 5.81856 -0.190076 -0.174117 0.173029
26631 1 30.418 34.3826 5.6638 -0.561701 -0.112467 0.164813
1926 1 30.087 32.5167 7.17548 -0.946965 0.72712 0.0623037
26552 1 29.4342 34.5514 7.03701 0.186565 1.1409 0.0785051
2009 1 31.9494 33.2105 4.40651 0.527951 0.200973 -0.179353
488 2 35.1875 32.3771 6.56724 -2.84967 -0.471981 2.78651
2006 2 35.9431 34.4853 6.66876 -0.353162 1.09674 1.08895
486 2 36.6045 32.7445 5.13267 1.10702 -0.81052 -0.71042
26560 2 37.9895 34.3309 7.00848 -1.39969 0.719426 -1.0077
26559 2 38.1986 33.9962 4.97668 -1.09496 2.02916 -0.135321
571 2 40.8364 33.0609 6.76399 -4.5409 4.95861 0.0428083
26488 1 41.4954 32.7768 5.11816 -2.37995 -0.716309 1.47672
574 1 45.5751 34.8 5.40259 1.58019 -2.47451 -8.17322
573 1 46.7042 33.5699 5.39421 -1.23226 4.79186 0.278264
26492 1 46.4461 35.124 6.78821 2.57016 -8.43133 0.293587
26491 1 47.9283 32.3834 5.2049 -7.32355 1.03228 3.65115
26568 1 49.0474 33.3542 6.00499 6.19024 4.51726 7.93556
26569 1 47.6879 34.0218 6.70528 -5.5689 -5.32049 -5.16358
499 1 48.2866 32.3226 7.03987 1.7206 -4.00655 -0.171558
26567 1 50.691 33.3419 6.44187 5.73376 1.79788 -1.72017
26496 1 51.1126 31.7734 5.9381 0.458759 -3.21177 1.26652
2022 1 52.5399 32.5793 5.42577 -3.03698 -4.73728 -1.58221
2025 1 52.3008 33.134 7.02927 0.712619 1.68737 -3.33188
655 1 52.498 34.2294 4.96602 1.4865 -0.632424 2.6702
651 1 50.9825 34.7784 5.57291 0.836098 -0.225624 -0.570734
584 1 53.0703 34.5279 6.51535 -0.868912 -0.24305 1.38107
26580 1 54.9252 32.9651 6.0105 -0.171945 -0.823212 -1.32334
588 1 55.5348 34.5659 6.17298 -0.0815518 1.09978 0.345386
660 1 54.7647 33.0512 80.6234 -1.13368 -0.392491 0.766366
585 1 56.5738 34.0355 4.92865 -1.88812 2.59474 0.0673654
1954 1 58.2527 32.7377 6.34105 -1.66749 1.12852 0.694863
581 1 56.6054 32.7536 6.05366 -2.1391 -1.02785 -0.477379
583 1 56.4995 33.8271 7.37441 0.833428 -0.0795686 -0.338744
516 2 59.1694 34.0049 5.36476 -0.239942 -0.439248 0.524235
2030 2 61.7835 34.7191 4.44301 -0.20589 0.049031 0.264458
587 2 60.7727 32.9188 4.63984 0.0671666 0.18117 -0.0796978
26584 2 64.2736 32.1528 5.18176 -1.7169 1.121 -0.408119
1957 2 63.2706 32.4575 6.93108 -2.3128 -0.599667 -0.853941
592 2 63.2878 34.1074 5.74037 -0.0435333 1.15753 1.2925
1958 2 66.0986 32.16 6.08444 -1.15479 -2.56739 -2.29854
600 2 70.4337 34.8849 7.03116 0.147343 -2.8477 0.436512
2041 2 71.6149 34.3486 5.40383 0.353909 0.783203 -0.792677
524 2 72.4222 32.5867 6.20836 0.257936 0.62549 -1.79251
528 2 73.9717 33.8919 6.62967 -0.00395684 0.243447 -0.231318
2045 2 75.4488 32.9803 5.51605 0.414877 -0.320192 0.459392
26519 2 76.2135 32.2702 7.28794 -0.330305 0.265469 -0.589187
2049 2 79.771 32.3621 6.36252 -1.08766 -1.49441 2.19766
2046 2 80.0088 34.1089 7.4685 -1.5021 0.0361816 -0.0364525
1977 1 79.4211 32.8939 4.68344 0.494233 0.259197 -1.04431
692 2 6.30451 37.558 4.51658 0.318704 0.47126 0.246217
26608 2 8.23674 37.1693 5.66046 -0.777273 -0.146056 0.121664
540 2 9.42494 37.0037 7.37728 -0.478905 -0.110103 0.157005
2057 2 10.9052 37.5861 6.00072 -0.832247 1.24145 1.28842
620 2 12.8525 36.8543 5.79143 2.18185 -0.751035 -2.88392
2062 1 15.8795 35.2633 6.18105 2.11326 0.368942 -1.71279
619 1 14.4406 36.066 6.02007 5.97796 -5.4154 -1.08039
2069 2 21.0161 36.2674 5.42172 -1.62378 -0.748472 -1.16018
631 2 22.7073 35.1365 6.37074 -0.462879 0.851613 -0.929454
2070 2 22.8133 37.0921 5.83813 2.15915 -2.28993 -2.32553
2005 1 29.9626 35.7021 4.72218 -0.166331 1.77473 1.26265
26627 1 29.8745 36.2032 6.34356 0.0156351 0.775919 0.398083
2233 1 31.4393 35.5528 6.32239 -0.801703 0.630375 -0.367046
561 1 31.9396 35.1645 4.77512 0.414291 -0.335711 0.443853
640 2 32.5418 37.0299 7.20457 0.690877 0.136836 0.549593
639 2 35.7579 36.5111 6.76044 3.44159 -0.174108 0.299109
2013 2 40.0045 34.902 6.82672 -1.85189 3.45916 2.83962
566 2 39.4862 35.6407 4.94283 -5.32521 -1.47875 -0.0441795
26645 1 44.0549 35.2933 5.05263 -2.28291 0.579794 -6.22267
26639 2 44.1281 36.5253 6.23242 4.30851 -0.735465 1.99365
653 1 52.629 36.3261 5.72871 -0.202324 0.639336 1.00618
2094 1 51.1058 36.3678 5.00931 -0.277933 0.270382 -0.720334
656 1 51.4009 35.8601 6.77823 2.25228 1.72549 -0.0193782
2098 1 53.9843 36.1651 4.77194 0.310417 -0.310198 -1.548
2101 1 54.2532 35.6461 6.31658 0.826171 0.425271 -2.05479
2035 2 60.6707 35.2064 6.14137 0.386469 -0.88594 0.42116
2037 2 62.6617 35.4105 7.20677 -0.309829 1.00315 -0.339914
673 1 65.0318 37.5513 6.49804 3.43834 0.246526 -0.942423
674 2 70.3014 36.7981 6.12909 1.65514 -0.787682 0.568434
604 2 72.8539 35.887 6.07088 -0.00612852 -0.789521 0.649799