ITEM: TIMESTEP
130000
ITEM: NUMBER OF ATOMS
27436
ITEM: BOX BOUNDS pp pp pp
4.3679337843954045e+00 8.0632066215604226e+01
4.3679337843954045e+00 8.0632066215604226e+01
4.3679337843954045e+00 8.0632066215604226e+01
ITEM: ATOMS id type x y z vx vy vz
25996 2 5.52513 5.50653 5.47849 -1.74007 -0.330552 1.13749
4 1 80.5826 6.73259 5.82644 -1.90138 0.43256 0.338732
12 2 12.8838 4.82363 6.15866 0.170614 0.24485 1.2403
25999 2 13.6113 5.89766 4.49221 1.1772 -2.12602 2.19669
1454 2 14.784 6.81967 5.93882 -0.737549 -1.04294 -2.39582
11 2 14.7039 5.08744 7.09881 2.17808 -0.379822 1.21911
89 2 16.5276 6.76941 4.77732 1.23911 -0.853611 -1.35569
1458 2 17.2788 5.55615 6.30769 0.786946 1.64795 1.72646
19 2 19.3191 5.86892 6.22242 0.0557169 -0.170875 0.415755
1537 1 24.6709 5.88607 6.65715 -2.3138 1.25746 0.704748
99 1 25.4619 7.16943 5.89644 -0.932505 -1.18959 -0.529485
27 2 30.905 4.88917 5.12402 0.642574 0.127464 0.13924
31 2 33.9134 5.03756 6.10356 0.901734 -1.0199 -1.33363
32 2 34.7934 6.83891 5.64829 0.472596 -0.444479 -0.363801
1404 2 37.6892 5.01996 7.11316 0.433652 -0.289699 -0.324895
1481 1 38.5116 6.35159 6.29626 -0.443855 0.964257 1.26199
26107 1 40.1834 6.04702 5.61698 -0.867176 -0.950027 0.683425
1482 1 41.6274 5.41014 5.04421 2.01013 0.28897 0.168168
26028 1 38.8362 5.28339 5.07515 -1.94927 -0.216426 0.435153
115 1 43.9263 4.95804 4.56059 0.146178 0.109271 -1.55198
44 1 42.6168 80.34 5.11832 -1.04247 0.970074 -2.16677
1412 2 44.8609 5.40456 6.01718 0.648003 -0.815685 -0.419939
1410 2 46.8115 4.92032 5.53846 1.17537 -1.24085 -0.714011
26036 2 48.5797 5.05227 4.53324 0.878012 -0.493667 -0.261603
27406 2 50.6271 4.83664 4.52988 -0.776604 0.23436 1.56361
1420 1 55.1829 5.16207 6.98319 -1.04311 -1.74366 -0.466069
26044 1 54.3569 6.62553 7.26694 0.260942 -0.0821902 1.20731
27416 1 56.5421 6.02809 6.53458 1.32587 -0.965098 -0.993948
53 1 58.6079 7.14274 6.16241 -0.739587 -0.827222 2.79741
26047 1 58.0942 5.88967 7.18409 0.0550653 1.98407 1.20627
55 2 58.8665 4.49091 6.18868 0.5174 -0.194287 -0.225483
1422 2 60.8903 4.70498 6.45178 0.758262 -0.527959 0.0437922
1423 2 60.2805 5.2106 4.54901 1.6894 -1.1999 -2.608
1425 2 62.7948 4.54315 5.00006 -1.31414 -0.117559 -0.545681
60 2 62.8492 5.2168 6.99857 -0.3691 -0.0700454 -0.212814
1502 2 62.9371 7.20787 6.32722 -0.255125 1.21453 0.274964
26127 2 63.4736 6.42842 4.46539 -0.798594 -0.992528 0.517645
27420 1 67.7583 6.06135 5.993 -0.188765 -0.259296 -0.538323
133 1 66.8012 5.02225 5.09282 1.13183 0.414598 -0.0107944
1436 1 68.8504 6.97791 6.9162 -0.25826 0.55295 -0.47328
1426 1 68.4499 4.56619 5.87569 -0.233902 -1.00615 0.359659
26055 1 67.929 4.87588 7.42149 -0.420377 -0.0969051 0.13414
1513 2 72.6396 6.07143 6.3573 0.0188588 -0.157762 -0.15627
26063 2 72.169 5.32385 4.47854 1.08155 -0.842784 0.530336
67 2 74.387 4.98686 6.36241 -0.868593 -0.39406 0.797824
72 2 76.3355 5.27269 6.87214 -0.333396 0.226766 0.569621
71 2 75.4114 6.98946 7.49255 -0.0864817 0.0650727 0.620148
76 1 79.4236 5.69343 5.22978 0.12852 -0.464023 -0.299095
73 1 77.8699 5.32948 4.82599 -2.04716 1.12523 -1.25681
79 1 6.37142 9.99011 5.9688 -0.345034 0.271116 -0.127687
1522 1 5.16096 9.37037 6.95036 0.671693 2.28443 -1.57665
1521 1 5.45078 7.90112 6.21969 -0.563269 0.41956 0.299723
26071 1 6.94292 8.45486 5.71732 -1.09177 -0.817543 0.752973
26075 1 8.51227 8.94489 5.33793 1.07727 0.00653698 0.140885
1529 1 10.0812 9.41135 4.90218 -1.59147 1.07264 -0.445416
1525 1 8.657 10.2473 6.40781 1.02578 0.344376 0.331378
227 1 7.29314 10.1208 7.38835 -0.39855 -0.856015 -0.206984
87 1 12.3924 9.3891 5.43738 -0.57889 0.614829 -0.127017
1527 1 10.9754 9.3517 6.36658 -0.773679 -0.765247 0.420635
1533 2 14.8825 8.8631 6.1891 -0.533576 1.78235 -0.0652134
1457 1 13.8198 9.64923 4.55779 0.126172 -0.18902 -0.166932
26008 2 17.0675 8.76837 4.9819 -0.464695 -0.117625 -0.340943
1531 2 16.6424 8.72792 7.23833 -0.208615 0.913234 0.116606
96 2 18.5065 8.50075 6.37022 -0.510953 -1.53377 -0.994674
171 2 19.734 7.37589 7.59647 -0.803959 0.465749 0.93853
1468 2 20.253 9.28607 5.64388 -1.3407 -0.130626 0.105026
22 1 24.4271 9.06301 5.09705 0.278367 -0.156952 0.708096
26091 1 24.3066 8.2135 6.53441 0.374744 -0.444923 -0.0194134
1625 2 31.9446 9.83532 5.91208 -0.4767 0.107458 0.623752
1474 2 34.8731 9.82387 6.93921 -0.672514 -0.333116 0.278475
107 2 36.058 8.26274 6.34347 -0.00620995 0.468959 -0.0816878
26108 1 38.3789 10.5209 5.13962 1.09044 -0.13182 -0.882216
1558 2 43.0388 9.40819 7.59627 -1.38357 -0.0448583 0.767337
128 2 49.9604 7.68028 7.69647 -3.49931 0.658732 0.0715182
26115 2 51.1629 8.59329 6.33707 2.80929 0.126653 2.94468
122 2 52.9532 9.45267 5.83483 1.50879 -0.297735 0.284334
26195 2 54.2961 7.88515 5.93715 -1.038 4.49107 -0.324824
126 2 55.8717 9.15664 5.56256 0.80046 -0.919237 -3.35148
26123 1 56.6063 7.5143 7.30181 -1.68916 -0.601231 0.251682
26045 1 57.354 8.20747 5.96373 0.673746 -0.419366 -1.17031
26048 1 58.7875 8.5077 7.08385 -0.748552 1.67731 0.766107
140 2 62.9355 9.11642 5.46448 0.995693 1.16397 -1.19122
64 2 63.1313 10.0974 7.27735 0.203905 0.14273 -0.324418
68 1 69.0099 7.98623 5.58206 -0.667886 0.106875 0.0656993
26060 1 69.6605 9.2333 6.49671 0.266448 1.18656 0.404427
26131 1 69.6722 9.31138 4.81268 0.244074 0.3847 0.986732
65 2 73.5482 7.80152 5.59123 0.120948 0.911392 0.00220744
69 2 73.8729 8.36054 7.57979 -0.229535 1.42456 -0.133278
145 2 76.2263 8.34979 6.15306 -1.22927 2.53988 1.61809
147 2 75.0356 8.79674 4.54263 0.433128 0.35954 0.663685
150 2 77.9067 9.49788 6.45462 0.360219 0.162652 1.1391
74 2 79.139 7.86078 6.21867 0.377623 0.4855 0.113887
8 1 9.74143 11.0087 5.36628 0.743422 1.45189 -0.237501
83 1 10.1772 12.3563 6.25146 -0.473984 0.194075 -0.188165
1456 1 11.1243 11.0325 6.60452 1.00192 -0.431897 -0.597393
1526 1 12.4507 11.0723 5.55966 0.265613 -0.293009 -0.196403
1605 2 13.0596 12.7701 6.1594 0.138896 -0.457861 0.478555
167 2 18.3107 13.1606 6.77173 0.336238 -0.540985 1.12367
1620 2 19.5827 10.4278 7.20886 -1.19473 0.910819 -0.309329
97 1 23.2668 10.4196 4.70882 0.5207 -1.3104 -0.957909
24 1 22.6991 11.8949 5.33235 -0.239531 0.733527 -0.264142
95 1 24.5878 10.6069 5.66447 0.415536 -0.751389 0.42237
26167 1 24.3249 12.2644 5.63622 0.164899 0.247242 0.0755552
1623 2 30.4203 10.3193 7.25999 0.833225 -1.01736 -0.421596
112 2 31.7429 11.5973 4.82725 0.312949 -1.09395 0.564262
185 2 34.6303 10.8503 5.16635 0.637024 0.614844 -0.994454
1627 2 33.1503 10.8223 7.27975 -0.405486 -1.40913 0.799983
259 2 35.3812 12.4336 6.22188 -1.30534 -0.05473 0.194041
1631 1 37.7746 12.6332 5.92185 1.12918 -0.00294998 0.443248
187 1 38.4397 11.2495 6.65209 0.234042 -0.0728228 0.522577
116 2 43.331 12.1108 6.30529 0.585732 1.85644 -2.62486
195 1 46.777 12.505 4.89766 0.503049 -2.63087 -1.22802
267 1 46.7578 13.0819 6.45534 -0.654407 -1.11954 3.00791
1562 1 47.2174 10.949 5.24974 1.92586 -0.735541 -3.02574
26188 1 47.226 11.5682 6.78809 1.24591 -3.19211 0.903463
26114 2 50.5593 10.2221 7.38544 -0.520731 -0.177701 1.09979
197 2 52.1104 11.1969 6.53062 0.0779532 0.625894 -2.26723
124 2 52.0286 13.1571 7.23666 1.44509 0.529161 -0.424779
26191 2 53.0783 12.0744 4.91014 2.62957 2.36486 -4.05159
26120 2 54.5128 10.5991 5.16405 2.53199 0.252484 -1.01995
26199 1 58.7771 12.5221 5.66364 -2.79595 -0.423755 0.298804
208 1 60.1063 12.1551 4.70703 -0.960974 4.09672 1.6177
1654 1 61.0939 11.8907 6.02508 0.934195 -1.26574 0.733743
1657 1 59.9041 12.5418 6.99732 0.320536 -1.95872 -2.45666
135 1 61.9569 11.4012 7.37465 -2.28048 1.92167 -0.441561
136 2 62.348 11.01 4.82718 0.666436 1.16281 0.388443
217 2 66.1593 10.7738 4.5681 -0.268191 -0.810129 0.530658
26212 2 66.8078 12.2401 5.87317 -0.468211 -0.443825 0.726023
1590 1 73.9318 13.4728 5.47547 1.35932 -0.202729 -0.100767
152 2 79.1248 12.9708 5.12169 3.93659 4.08373 -1.52916
228 2 4.73047 14.6843 6.41153 0.591122 -1.6422 1.24008
26147 2 5.74463 16.3071 5.61735 -1.80875 -0.881991 -0.298622
160 1 8.89623 14.9716 6.54968 0.720692 1.57366 1.65917
1602 1 10.3969 15.3394 7.19233 0.2855 -0.692363 -0.509768
163 1 11.0754 13.7826 6.44666 -0.554891 0.461474 -0.38761
162 2 11.9447 13.8902 4.88395 0.0400804 -0.337864 -0.227437
88 2 13.4259 14.7686 6.35139 0.172509 -0.130407 0.0230077
1611 2 14.6615 15.2496 4.78887 -0.097999 0.586692 -0.125026
243 2 16.1577 15.608 6.15623 -0.499031 -0.0744219 -0.0582237
168 2 14.5241 16.2625 7.27868 0.571208 0.512877 0.34689
248 2 19.2143 14.9671 7.09187 0.224792 -0.247282 -0.293884
26235 2 17.8584 16.517 6.94634 -1.00941 -0.0346918 -0.232064
1613 1 22.1526 13.4395 5.93312 -2.03093 3.86466 1.0544
26239 1 21.7314 15.0706 6.32387 0.516203 1.22869 1.43933
26168 1 22.5288 15.3969 4.86791 0.171905 0.676039 -1.7128
174 1 20.8864 15.2913 4.6454 -0.464494 -1.13919 0.653266
1614 1 21.1608 13.64 4.51288 -0.104155 -0.0973664 0.961847
26096 1 25.2742 13.5788 5.2984 0.219681 -0.446598 -0.685206
26163 1 23.6625 13.9498 5.27021 -0.96197 0.413141 0.402826
181 1 28.5337 13.5428 5.73516 -0.273929 -2.57041 3.13906
178 1 27.2578 15.1704 4.89727 -3.75985 -0.780665 -3.28317
1697 1 27.8312 14.4362 6.98543 -3.94785 -0.347331 0.101956
26176 1 28.3969 15.7052 6.02546 3.62595 -1.67129 0.301387
26171 1 26.9403 13.5692 5.23618 -0.832458 0.217995 0.0643401
183 1 29.7157 14.6378 6.1978 0.672142 -1.43618 -2.28705
3219 1 30.8947 15.7225 6.71819 0.12624 1.41461 -5.12276
184 2 32.1327 13.1387 6.08559 0.547697 -0.634478 -0.0959843
1701 1 32.2063 14.6753 6.83743 -1.64216 1.62751 2.04119
26180 1 36.4435 13.5966 5.52215 -1.31698 0.12338 0.0360868
1630 1 36.9873 15.1686 5.73164 2.47435 0.0489158 -0.877008
335 1 36.6229 16.4637 7.01314 -1.23774 -0.256342 -2.00608
1705 1 37.1583 14.931 7.38469 0.689337 -0.960374 1.44078
1636 1 38.365 13.8746 6.93322 -1.80327 -0.693618 -0.10312
264 1 38.0121 16.4606 6.06594 -0.295952 0.426196 -0.431259
1706 1 38.9297 15.4499 7.09734 0.733305 -0.175848 -0.345466
1557 2 43.1056 14.1073 6.46702 1.59737 -2.91894 -1.71266
192 2 43.3323 15.7473 5.29002 -0.58978 2.12476 2.45888
196 2 49.2054 16.1205 5.26576 3.53984 -2.83752 2.43574
121 2 51.7732 13.7106 5.25219 2.60119 0.429842 0.270605
275 2 51.0848 15.5032 6.02445 -0.926561 3.08483 0.982902
1651 1 57.5497 12.9726 6.75953 2.06302 -1.56507 -2.37173
203 1 57.1318 14.0484 5.03962 0.747474 -0.672926 0.408532
207 1 57.7882 14.6067 6.51356 -1.90185 0.627776 -0.661937
1733 2 64.2729 15.8551 4.94181 0.670744 -0.683086 -0.574189
26132 2 66.2446 13.8039 4.6381 0.397682 1.795 -0.23303
1661 2 66.1337 15.4932 5.80642 -0.136583 -1.79729 -1.38068
1737 2 68.1151 16.0827 6.07146 -2.07022 -0.154517 -0.46385
295 2 68.8788 14.1886 5.68163 1.55253 0.375634 -1.63388
218 2 70.539 15.2197 4.94114 -1.90478 -1.7483 0.206712
224 2 71.2105 16.2337 6.62072 1.17107 -0.859206 0.360111
300 1 74.6834 14.8389 6.08807 0.816117 0.0314854 1.34317
1741 1 75.1292 15.8442 7.3613 -0.39991 -0.0638113 0.57992
148 1 75.7373 14.713 4.78412 -0.33309 0.616555 0.478017
305 2 78.9651 14.7662 6.08575 -0.367607 0.458162 -1.0359
158 1 6.9293 17.6805 4.92579 2.55678 -2.56436 0.142421
226 2 4.89905 17.3917 7.11926 -1.46262 0.573045 1.41894
26152 1 8.4861 16.6029 6.60578 -0.490267 0.768272 -0.313069
1674 1 7.40605 19.1574 5.65692 0.601399 2.12871 1.85759
1681 1 10.1251 16.9456 6.77646 0.44742 -0.720138 -0.210175
231 1 8.53425 17.1825 5.02272 1.74523 1.52358 0.111302
1753 1 8.11731 18.2311 6.88457 1.63307 0.551165 0.0161763
1746 1 9.52176 18.2762 5.90004 1.53306 0.826733 0.3945
236 1 8.88436 19.4503 4.8556 -0.670142 0.754872 -0.268981
235 2 11.8134 17.6396 7.15553 1.51056 -0.203326 -0.73415
240 2 12.9274 19.244 6.51721 -0.988845 0.168531 1.02205
26312 1 17.5273 18.779 5.02509 -0.273939 -0.447317 -1.51977
26237 1 18.6315 17.5317 5.33668 -0.906295 0.255484 0.380655
244 1 17.9283 19.4435 6.52486 -2.43177 0.227977 0.606235
26311 1 19.4018 18.6137 6.38146 -0.0938581 0.0659534 -0.242632
252 1 21.2774 16.6086 6.93293 -1.95454 -1.06206 -0.702621
397 1 20.8737 17.9321 5.95079 -1.48385 -0.776565 -1.0954
400 1 21.476 18.9382 7.16205 -0.409678 -3.50906 -1.63303
251 2 26.5883 18.7896 6.75892 1.39501 -4.78789 2.82146
331 2 27.347 18.2065 4.9697 -1.06206 -1.66434 -3.51214
255 1 29.4102 16.4566 7.18006 -1.22193 0.374259 -4.96624
1777 1 30.8505 18.5789 6.72303 -6.79612 -8.22665 1.20167
26323 2 31.1505 19.3501 4.87675 -1.38271 -1.61134 0.325269
1699 1 32.4615 18.1459 7.01083 -4.29466 2.20729 1.83214
339 1 34.258 19.3146 6.1145 -0.164546 -0.421652 0.887685
411 1 35.0313 18.5146 4.86268 -2.87786 -0.677718 -0.0386402
1857 1 37.1516 17.4248 4.98795 1.47317 -1.55303 -2.38148
26327 1 35.869 17.6524 6.06534 1.74713 -2.20009 -0.138383
1779 1 34.9625 18.3451 7.31822 -1.82083 0.818394 -1.14744
341 2 41.9194 17.1972 4.89848 1.25894 2.81786 6.04905
268 2 42.7224 18.504 6.36078 2.89037 1.53898 3.96848
1638 2 49.0681 17.795 6.60021 8.6557 5.49073 -0.482372
26268 2 48.2295 19.0336 79.9472 1.71771 8.15096 6.35503
1718 2 50.9922 17.3057 7.03617 -1.09097 -3.86714 -0.532635
280 2 54.2524 17.5161 6.33568 4.04491 -6.16645 -2.0025
26272 2 56.1718 18.0766 5.78078 13.6696 4.72207 -3.4319
357 2 58.0185 18.7027 5.67313 4.42668 -0.896129 3.00337
367 1 65.6885 19.3787 5.22287 3.11221 -0.0767498 3.38576
296 1 66.1883 18.2875 6.39491 0.910415 -0.374786 -1.58387
291 1 67.2823 19.498 4.71056 -1.4038 1.02575 0.60153
26287 2 69.4908 16.9679 4.75489 -1.33941 1.74733 -0.185513
373 1 74.03 16.1876 5.27413 -0.366939 1.10043 0.77697
26291 1 73.9051 16.8667 6.82726 -0.63125 -0.0861184 1.06946
297 1 72.453 17.5439 6.28522 2.69193 4.71564 -2.92972
26363 1 72.7297 17.1116 4.6843 0.265782 1.13297 1.52104
1742 1 75.5891 16.3773 4.58553 0.800174 1.16328 2.05082
232 1 77.2631 16.5868 4.4906 0.586916 -0.805565 2.22565
1819 2 79.0915 16.502 4.64378 -0.378408 0.534781 0.0889508
303 2 79.2421 16.7036 6.66172 0.252648 -0.981692 0.227704
387 2 6.99406 21.872 7.32514 -0.321087 -0.120561 1.89054
311 2 7.97982 21.7932 5.53772 -0.590878 0.225316 -0.17153
26232 2 10.0136 21.8131 5.85187 -1.63413 -0.877997 -2.05243
237 2 11.6174 20.8199 6.62527 2.96244 2.30483 0.0385669
313 2 13.165 22.1315 6.56217 -4.13633 -3.61763 2.9063
238 2 14.4272 20.5436 6.09696 1.99257 -1.02029 -1.09689
26231 1 15.6431 21.4344 5.43669 1.6893 -0.362065 -1.06873
391 1 16.5445 21.8427 6.80647 -1.17879 -2.03005 -0.405568
1761 1 17.7163 20.983 5.91991 0.85545 0.0936768 -0.0816312
1769 1 20.049 19.7866 7.39087 0.230798 0.469963 -0.355149
328 2 24.1124 21.4266 7.45581 1.60593 2.36637 -2.88743
256 2 25.8627 21.6412 6.4528 1.25488 0.0262934 -0.0267541
26319 2 27.7091 20.8623 5.88149 -3.98901 1.07157 -1.35405
1847 2 28.3909 19.4884 7.31677 -1.04269 5.24682 -3.69261
24951 2 29.7366 22.3787 5.24467 -0.691653 -1.21421 1.50058
329 2 29.3953 20.3938 4.79941 -2.96751 -2.72476 -0.927219
1775 1 33.056 19.7371 7.23341 0.00931614 1.05699 -1.33832
1778 2 35.672 20.3442 6.29005 -0.954792 0.807652 1.0657
1702 2 35.9646 22.0587 7.33797 0.581737 0.32964 0.110293
1784 2 37.4558 19.7462 7.05902 -1.09517 -1.13492 -0.0439707
343 2 39.459 20.6198 4.84219 1.10319 -0.653093 0.371859
1781 2 39.4197 20.2688 6.83253 -1.94944 2.1239 -2.04041
1783 2 41.3553 19.8437 7.27701 1.03666 1.7465 3.08352
1785 2 44.3118 19.4711 7.27806 -0.874913 -0.723692 -2.35748
356 2 50.0863 19.6633 6.13934 5.93753 -6.57189 -2.55853
26419 2 50.7113 21.6361 5.85915 2.17101 9.96723 2.62839
353 2 52.1495 20.2324 80.5368 8.47356 -17.8022 -2.4023
1800 2 53.6812 20.0212 5.73394 -5.16895 -1.44188 -6.41215
355 1 55.7071 21.8453 5.20061 4.48255 -12.1836 13.9573
26357 2 59.8112 20.0939 5.46567 -0.812389 -0.0397184 1.64149
1729 2 60.259 19.6724 7.44249 0.580218 3.32736 -1.78375
368 1 63.7172 22.1886 6.80715 -1.68605 -9.25878 4.248
1809 1 65.1636 20.9979 5.33785 -0.724136 4.9063 4.34816
1730 1 63.9111 20.6262 7.34688 1.38664 -4.65677 -2.44902
363 1 65.4301 21.3465 6.98972 -0.920998 -0.963574 1.64129
1734 1 66.2 19.8488 6.98214 0.313173 -0.63834 2.10906
26360 1 67.0463 21.9538 6.99761 -0.230313 -0.92001 -0.348918
1813 1 67.3442 20.6267 5.96937 0.00487428 1.19049 1.29748
362 1 66.6496 21.5656 4.73707 -2.0028 1.31297 -0.0736518
369 2 70.2713 19.6763 4.86488 1.43153 1.35672 1.05995
371 2 70.2556 21.6868 5.29069 0.970609 0.479978 0.638031
1738 2 71.2424 19.3471 6.71721 0.286569 2.42811 0.893274
1817 2 72.71 20.4819 5.89724 0.168349 1.63002 2.39233
447 2 72.2049 22.0989 4.74943 -1.03762 -0.159678 0.265288
1893 2 74.7003 20.941 6.02937 -0.544378 -0.267995 0.836449
1818 2 76.3505 20.8552 7.19522 1.09217 -1.12481 0.809518
1825 2 8.14759 23.4999 7.00662 0.585357 -0.974044 1.29612
26375 2 8.6444 24.4494 5.28731 1.33876 1.51142 1.16351
26308 2 12.4155 23.5811 5.39884 -3.38864 1.6819 -2.18748
26383 2 14.3095 23.8115 6.5877 -0.266682 0.316439 0.938697
1768 2 15.84 25.5303 6.75661 3.06699 2.52174 1.36824
395 2 18.1105 25.6196 6.46836 -1.29973 0.561408 0.419998
26386 2 16.8059 24.7083 5.14632 -1.51155 2.00091 -2.40293
477 2 22.369 25.106 6.67109 -0.88345 -1.36824 -0.54385
26390 2 22.7282 25.0953 4.67469 1.35402 -0.581093 -1.06128
26399 2 23.3361 23.2676 6.89142 -0.457418 0.634056 -0.170501
26393 2 24.3257 23.8843 5.15468 -1.31803 0.311482 0.925227
26397 2 25.5505 25.2898 6.42316 0.0456275 -0.686199 0.15686
406 2 26.2681 23.5264 5.67998 -2.04497 -1.5203 0.441617
327 2 28.1223 22.888 6.46401 1.69319 0.270616 2.79429
1849 2 35.2434 23.1947 5.7743 1.32778 1.6752 -0.517606
340 2 37.4519 24.7503 5.54811 2.68147 -1.58991 -0.361478
408 2 35.6696 24.8637 6.88723 1.84714 -1.3017 0.139977
26407 2 38.7777 22.504 4.65464 0.873071 0.429742 1.52536
1786 2 40.7129 23.0779 7.25671 -2.39369 -0.161621 2.00489
338 2 38.972 23.6263 6.37295 2.28387 1.40802 -1.52228
26413 1 43.6096 25.1216 7.72557 0.189588 -5.4149 -14.084
342 2 42.2175 24.2447 7.81329 -1.70008 -0.189356 5.60696
428 1 49.7801 24.7032 6.59725 4.50975 -0.689901 0.0319714
26411 1 48.3281 25.127 7.19443 6.34995 0.113797 -1.88489
26424 1 49.1223 24.7338 5.02988 -0.283451 -10.454 -2.35498
427 1 50.5012 23.6534 7.69514 -3.93698 -8.48991 -7.1452
431 1 53.3769 23.7789 6.65459 -1.02175 -8.16358 7.10722
1873 1 52.076 22.8846 7.18146 -2.33214 -7.38878 2.39138
1871 1 51.8579 24.5013 7.35791 -2.13655 0.136704 -8.94307
1798 1 54.8399 23.0143 6.01915 -10.2056 -6.78068 -5.77869
26423 1 55.327 23.6249 4.43871 -4.06036 -15.6495 12.6724
1953 2 55.8965 24.9935 5.39177 1.23995 -8.23726 -10.2677
1877 2 55.3632 25.2487 7.40992 -1.75319 -3.74103 6.08322
365 1 64.4654 22.5696 5.36638 1.60021 -1.91064 2.90441
439 1 64.0258 24.7815 6.15826 -1.43081 1.505 -8.70145
1806 1 64.7363 23.4539 6.9568 17.0703 -11.1636 8.9292
26351 1 63.7881 23.8947 4.69918 2.37631 0.957207 7.64641
26359 1 67.0376 22.9531 5.60732 -1.85329 -1.19813 -2.47056
443 1 68.1812 24.0996 5.98236 -1.10663 -0.581748 -0.812509
1814 1 68.8388 22.6122 5.71092 -1.16443 -2.36204 -1.69151
1810 1 68.6121 22.4969 7.37126 0.73619 0.262989 0.343855
26435 1 69.6382 24.5196 6.67348 -1.66132 -0.0477981 -0.952519
372 1 70.1656 23.113 7.43845 0.457715 -1.50005 -0.759174
376 2 74.8405 23.9202 5.37369 -0.0979543 -0.108403 0.369961
1821 2 75.7411 22.7506 6.83917 -0.360077 -0.865376 -1.00932
381 1 79.1254 24.482 4.83252 -1.48134 0.784336 -1.05288
26372 1 78.8734 24.6235 6.49533 0.364601 -0.223197 -0.251583
464 2 6.71482 26.8105 5.36149 -1.03414 0.756552 0.989861
307 2 8.57389 26.3497 5.96713 0.31609 0.66303 -1.12461
1909 1 10.1669 26.2057 6.88297 1.97561 0.306984 -0.923819
26451 1 10.2645 27.8207 7.40332 -0.87307 -0.0360467 0.358177
386 1 11.8592 27.518 6.85309 -3.95833 -4.97423 -9.10028
465 2 12.3584 26.6825 4.97409 0.539539 -0.149525 -1.63648
26384 2 13.9862 25.7136 5.89797 -1.62455 -1.10295 -1.19318
393 2 14.902 27.4366 5.26458 0.201113 1.27781 0.15228
1837 2 16.0116 27.5341 6.98488 -1.20673 1.23051 -0.688188
1921 2 19.0238 28.1384 5.79568 -1.73856 -1.78809 0.742486
394 2 18.3608 26.5197 4.65295 1.17278 0.408793 -0.519125
399 2 19.7739 26.7114 7.08384 -1.13869 -1.1058 0.350042
475 2 21.3117 26.535 5.66735 1.40237 0.403738 -0.856957
549 2 20.7061 28.2119 4.55782 -2.09214 2.07435 1.67482
1930 1 31.5297 28.3587 6.22327 -1.94576 -1.92349 1.08114
26475 1 31.3119 27.425 4.87696 0.434532 1.16905 -2.55127
1854 2 35.7952 25.8315 5.13396 1.72278 0.393102 1.26887
26563 1 39.4455 27.9705 6.62626 0.90083 0.151938 -1.16247
26406 1 38.1746 27.8517 5.54069 0.975877 -4.49126 -3.37392
26336 1 45.14 25.6427 7.41143 2.05788 -0.04141 -3.24018
418 1 46.4408 26.2871 6.33551 2.90944 -2.71568 -0.399123
26487 2 46.0868 27.9017 6.50863 -4.53732 2.50191 1.48578
345 1 47.8656 25.5886 5.62603 10.6625 -14.776 -6.41746
426 1 49.16 26.5896 5.31986 -9.799 -4.8417 11.1715
503 1 48.9297 28.2149 5.97739 -0.196982 -11.3817 13.0538
26495 1 50.1442 26.3598 6.71887 0.303262 -3.30201 5.58284
507 2 54.39 26.3899 5.27206 -5.06679 -5.06643 -16.7836
1874 2 56.0882 27.0789 7.03829 3.72246 -1.02739 11.4726
436 2 54.5663 28.1267 6.18182 5.06113 -4.64131 -2.00427
1950 2 56.7139 26.9255 5.10174 1.63437 -8.80112 -13.3196
1949 2 58.3661 27.9276 5.4221 -31.4193 12.6497 5.49014
26504 1 59.977 27.5445 5.51309 15.9761 6.38432 -6.57793
1802 1 61.4948 27.4909 6.25339 0.0569288 5.62357 -14.1575
1878 1 61.9388 27.1158 4.63693 7.52647 -2.81593 -20.6116
1881 1 63.1305 26.999 6.73343 2.54151 -5.9217 -5.74852
26356 1 63.1472 26.0915 5.28445 -1.29601 11.2096 -10.473
1883 1 64.0846 25.8362 7.49055 5.27069 -2.65152 -1.72307
515 1 69.3071 26.1252 6.66407 -0.923405 -0.456884 -0.0587785
456 2 73.9289 27.0533 5.72426 -0.779482 -0.0906013 1.15659
1974 2 75.6188 27.2113 7.21633 1.61479 -1.67745 0.436834
26521 2 75.5713 25.8296 5.75055 0.141638 -0.975522 0.295363
529 2 76.7709 27.0486 4.55376 -0.193853 1.1172 -1.33276
450 2 76.0716 28.5948 5.73884 0.00349378 0.522591 1.27241
459 2 5.46929 30.0052 6.06876 1.84018 -0.419225 -2.70867
26452 2 6.43959 28.7635 4.70572 1.97375 0.222182 -1.61082
538 1 11.3861 31.5125 4.70064 -0.358361 0.342655 -2.88934
466 1 15.2178 31.2327 5.67751 -1.49214 2.29576 -6.46871
469 1 16.5383 30.2333 5.67582 -1.08842 -2.71977 5.43656
26460 1 15.1589 31.4168 7.37059 -0.0824468 -0.704905 -0.809778
1914 1 18.5826 30.7454 6.65946 8.93631 -0.778853 -5.26067
26463 1 17.6702 31.4472 5.36409 -0.929605 -1.02344 -3.55765
473 1 17.1597 30.1736 7.24455 5.38409 2.15236 0.393539
556 2 24.1613 31.7287 7.03011 -2.26508 -0.469267 -2.57605
26479 1 31.5974 31.675 5.89501 -3.3788 4.69247 -0.48323
483 1 31.3409 30.7307 7.48228 6.41258 0.723746 -6.15258
412 1 31.6533 29.8271 5.45345 -4.08492 1.31226 2.36999
1933 1 32.7084 30.588 6.5316 -2.66433 1.84702 0.946207
492 2 34.2279 30.4932 5.44277 0.727791 6.13761 -3.60939
1934 1 38.4661 30.6746 5.21029 6.05136 -4.1083 -2.50726
26632 1 38.834 29.421 6.2258 4.22182 -2.69942 1.02221
416 1 40.3564 29.145 5.54424 -5.26077 -1.20191 1.95064
414 1 41.1952 30.3897 4.76506 -0.804726 5.84805 1.0052
1945 2 46.6722 29.5022 5.42842 -16.3174 6.81299 -6.33475
502 2 45.474 29.8729 6.9994 0.649158 -9.70269 5.07432
1942 1 48.4835 29.709 6.79477 30.2488 10.2103 -19.782
497 1 49.1804 30.3161 5.39762 9.23991 10.0017 -12.0914
498 1 49.6941 28.7278 4.45581 22.855 11.5647 8.67163
575 1 50.2629 31.2208 6.45563 12.0232 -25.4465 -19.8292
1946 2 53.8532 29.8451 5.4798 -7.70206 1.39155 9.64176
26571 1 54.0218 30.9758 6.92655 0.093201 5.18145 -4.22406
26583 1 66.7915 28.3299 7.063 5.86596 5.59775 8.27719
522 1 68.1967 28.3978 6.15415 -4.0622 -0.038112 -1.03936
520 1 66.2579 29.6585 6.22958 1.2132 -4.19574 5.44844
26515 1 67.1554 29.0402 4.94856 -1.8993 1.87111 3.93623
446 1 68.3011 30.1883 4.42235 -0.327162 4.49972 -0.812137
514 1 69.6779 28.89 5.48701 -4.30433 2.39619 4.86222
525 1 70.9644 29.8605 4.96276 0.607074 -0.00749745 -1.40726
26514 1 69.0862 30.3942 5.92834 -1.44467 0.765198 1.39456
518 1 69.7895 30.9665 4.51072 -0.218335 -0.274733 -2.2152
1894 2 74.1289 29.0644 5.38959 -0.127087 1.72886 -1.51609
601 2 72.5645 30.7313 5.19241 -1.31927 1.17168 1.29119
526 2 74.4774 30.8264 4.42091 1.79607 -0.382629 -2.60457
26527 2 5.45422 32.0663 6.29882 -1.67371 -2.484 0.319617
534 2 7.52439 31.948 6.18161 -0.103078 -0.186531 -0.151591
26532 1 9.27787 32.0157 5.75599 -1.78624 -1.0298 -1.51408
535 2 7.74576 33.7297 7.20929 -0.653225 0.576407 0.699433
26531 1 10.8788 32.1313 6.16079 -2.21253 1.24474 2.40689
539 1 12.3546 32.3151 6.8977 1.91076 -0.151576 1.13176
544 1 13.1575 33.54 6.11693 -4.50768 1.17054 -3.56912
468 1 15.5044 32.8928 5.60194 -0.995667 2.61168 0.54623
543 1 14.5345 33.3257 6.99891 0.840984 13.0476 -0.231716
542 1 15.4133 34.5088 4.97978 0.892499 -1.15264 -1.3299
548 1 16.7548 34.2083 7.10374 0.459735 -3.13248 -1.96453
547 1 18.2275 32.252 7.2805 12.2911 -0.560014 -1.05353
2065 1 17.1253 32.8716 6.15483 -0.605063 -5.0623 6.36417
476 2 19.9643 32.6519 6.60861 -2.83826 0.615744 3.7345
471 2 20.2165 31.9744 4.65937 -2.48141 1.70938 3.90154
26543 2 22.2723 32.1814 4.9395 1.95858 0.349156 -1.57795
551 2 22.1521 32.1037 6.98522 -1.44954 2.1558 1.38899
554 2 24.4215 32.1974 5.05725 5.72152 0.650931 -1.52097
552 2 23.2711 33.8254 7.20208 1.9129 -0.809222 7.6004
559 2 26.5612 32.1295 5.29424 1.97547 -5.00494 0.783201
484 2 27.9853 31.594 6.69298 2.35192 -5.25191 -3.53166
26480 1 30.7801 33.1333 5.94133 0.503725 5.83025 5.86713
26631 1 29.8865 34.5221 5.63768 1.41525 -2.05164 -3.97332
1926 1 29.8544 32.616 7.31276 -6.05426 3.58758 7.1522
26552 1 29.1785 34.6781 7.22682 4.39955 6.89685 5.1263
2009 1 31.6644 33.6475 4.54469 -5.19084 -4.14933 -2.19331
486 2 34.7827 32.3286 6.06063 1.103 2.28908 0.792075
2006 2 35.1266 34.3479 6.3812 -9.31756 4.60025 2.69747
488 2 36.3575 31.8477 4.74854 0.785649 7.85045 0.305401
26559 2 38.0396 33.6931 6.36886 2.4779 -4.69077 7.29018
1940 2 37.8914 31.6972 6.19635 0.886027 2.79068 11.0048
25191 2 37.6401 34.7774 4.57847 1.12951 -2.9182 1.95574
26488 1 42.037 31.9495 4.55547 7.38316 -2.50839 -12.3073
1939 2 42.1184 33.0193 6.47558 -3.71098 -2.10736 7.45318
567 2 43.7855 34.3875 7.05731 2.4708 0.94014 0.0689184
573 1 48.6735 33.5904 5.2506 5.97877 -5.89398 -3.50838
26491 1 48.5459 31.9093 5.57239 1.8511 -6.21387 -0.531178
26568 1 49.3491 33.6612 6.77668 1.78976 8.383 6.33451
26569 1 47.5645 34.1131 6.44323 -1.42208 4.03032 -16.0266
499 1 48.9894 31.9898 7.1335 -1.26095 -11.6424 -15.4344
26496 1 51.5606 32.243 6.47807 -5.39945 -11.2235 -6.08254
26567 1 51.0878 33.8535 7.05725 9.60422 0.908463 -4.90468
2022 1 52.8909 33.0632 5.74493 -8.37978 10.974 10.0728
2025 1 52.7989 33.6043 7.46454 -9.78078 17.4222 -2.22636
655 1 52.8365 34.7107 5.542 7.69061 -14.8873 -6.57929
578 1 54.2228 32.1481 5.88584 10.9975 -2.22677 8.15477
26580 1 55.4575 33.2725 6.79524 -11.5532 2.83565 11.803
588 1 55.8026 34.8727 6.37069 -12.0255 -2.83436 -0.794495
660 1 54.8851 33.3404 5.13639 3.22547 26.9257 -2.61906
584 1 53.624 35.0326 6.93259 -10.0871 22.3104 2.14503
657 1 54.2595 34.7308 4.61005 0.713745 -6.44918 0.321465
585 1 56.8965 34.1858 5.29491 -9.29194 -4.94819 6.86817
1954 1 58.8043 33.6138 6.94556 2.14018 -1.98416 -3.0576
581 1 57.1784 33.3058 6.71889 4.04427 -0.407487 -4.77923
516 2 59.6808 34.1221 5.51156 -3.20102 -6.73727 -0.21011
587 2 61.0489 32.805 4.73402 2.89578 0.166003 -4.48417
2030 2 62.392 34.356 4.80237 -3.18205 3.70372 -3.57495
26584 2 64.2428 32.203 5.77985 11.1448 6.79162 2.2758
1957 2 62.6023 32.07 7.40395 -2.34777 1.26167 -4.77134
592 2 63.4025 33.8673 6.55382 2.59054 5.7264 0.886108
1958 2 66.0548 31.241 6.12196 6.78043 2.00878 -2.42005
2041 2 71.4087 34.3267 5.27329 -0.760943 -3.14934 -0.142643
524 2 71.7741 32.377 6.20046 -0.640161 0.114212 -0.651007
528 2 73.724 33.1249 6.02334 3.64969 2.87953 -3.32575
2045 2 75.7121 33.144 5.44393 1.72524 -2.3356 -1.71003
26519 2 76.082 32.2129 7.24389 1.70308 -1.1008 1.04573
2049 2 79.6711 32.4683 6.25943 -0.38544 -0.141056 -0.378216
1977 1 79.6149 33.1977 4.63454 0.209243 -0.158179 -0.669547
2046 2 79.944 34.2228 7.33977 0.59354 0.97194 0.564955
692 2 6.24491 37.6332 4.47792 -0.997425 0.436803 1.17449
26608 2 8.19564 37.2586 5.54948 0.787563 -1.32323 -1.2678
540 2 9.39718 37.019 7.2183 0.844941 0.186481 0.302794
620 2 12.8397 37.1589 6.27764 -1.52373 0.169913 0.231666
2057 2 10.8895 37.7648 5.96042 -0.328603 0.525025 -0.490762
1990 1 13.9687 34.936 5.73584 -1.00584 1.31225 0.599586
2062 1 15.6381 35.2894 6.46412 0.207874 -0.720489 1.6502
619 1 14.3899 36.3944 6.41073 -0.271782 0.27339 0.210016
2069 2 20.5624 36.4993 5.17567 0.340284 -0.592186 1.37095
631 2 22.1448 35.1544 6.0789 0.984108 1.39794 0.913235
2070 2 22.3958 37.1638 5.73093 -0.401034 -1.5139 0.842926
2005 1 29.1736 35.8529 4.835 -1.51702 0.795096 -0.668294
26627 1 29.4439 36.3434 6.47619 3.30965 -0.0343578 -0.446878
2233 1 30.9592 35.6127 6.28767 -3.89899 2.64567 -3.76876
561 1 31.8056 35.3478 4.80887 3.02256 -0.130666 -5.61892
640 2 32.4478 37.019 7.45072 1.78879 -0.311935 1.1628
26557 2 34.8104 35.294 4.51955 2.17147 3.52596 6.21765
639 2 35.6669 36.1753 7.16473 6.09019 -2.50814 0.345101
566 2 39.3211 35.9033 4.57203 -1.11107 -9.97326 3.9282
642 2 40.6143 37.4904 5.22044 -5.78954 2.38075 -0.797153
2013 2 39.9081 35.1406 6.51766 2.69431 0.134427 -2.73428
571 2 41.8586 34.9115 7.18873 0.751484 2.48883 7.57302
570 2 44.4296 35.0391 5.28966 -3.24513 -1.60016 -1.44508
574 1 46.5223 34.2513 5.03308 -0.459728 -3.26642 1.42489
26639 2 44.7155 36.8933 6.09611 -2.46685 5.74248 3.66299
651 1 51.3534 35.2736 6.17748 -0.952611 -5.73428 2.01888
653 1 52.9683 36.8588 6.02691 4.43239 -2.01187 -6.43231
2094 1 51.5434 36.6469 5.25086 -4.23478 1.26624 10.0778
656 1 51.9132 36.4412 7.24963 6.81402 1.75089 3.07355
2098 1 53.9497 36.3581 4.84799 -0.409777 8.75187 -4.96349
2101 1 54.6634 36.1955 6.37933 2.60782 8.40852 -7.75487
2035 2 61.2112 35.3662 6.16941 -2.77039 7.11441 -1.70386
2037 2 62.4765 35.2156 7.80905 -2.41713 -4.88653 5.71478
673 1 65.3757 37.4898 7.20666 2.71059 -8.02322 -1.94968
596 1 66.7142 37.2298 6.23712 -3.81501 -2.04549 0.701241
600 2 70.5639 35.0677 6.99718 -0.774575 1.01723 -2.60305
674 2 70.3274 36.8295 5.97822 3.21139 4.37403 1.73046
604 2 72.8745 35.6554 6.01671 -0.630588 0.225241 1.4314
26671 2 75.865 35.1377 4.88185 -0.202517 -1.15927 -0.00549699
684 2 75.9139 34.9301 6.95132 -0.839048 3.2076 -0.644512
681 1 77.9188 35.2678 4.49858 -0.557151 1.15181 2.56311
26604 1 78.4928 36.0938 5.88095 -0.993467 -0.355546 -1.34599
26603 1 79.7253 37.3427 6.37567 3.78035 0.120921 -0.0996413
609 1 79.3557 37.0255 4.81575 -0.902069 -0.00673223 -1.00307