ITEM: TIMESTEP
100000
ITEM: NUMBER OF ATOMS
27436
ITEM: BOX BOUNDS pp pp pp
4.2936473714647931e+00 8.0706352628535143e+01
4.2936473714647931e+00 8.0706352628535143e+01
4.2936473714647931e+00 8.0706352628535143e+01
ITEM: ATOMS id type x y z vx vy vz
25996 2 5.12447 5.70483 4.97224 0.623479 -0.509878 -0.979356
1372 2 5.64631 4.63933 6.61645 0.240259 -0.371721 0.492406
25999 2 13.2088 5.38851 4.47644 2.08197 0.319198 -2.01311
1454 2 14.528 6.37748 5.67571 0.442699 0.212368 -0.976372
10 2 16.1798 5.46704 4.80999 -0.313883 1.07577 -0.773382
11 2 14.485 4.99581 7.18 -2.512 0.843373 2.42832
1458 2 17.3703 5.52266 6.49265 -0.952925 1.74358 0.327115
89 2 17.9184 6.49 4.45861 -0.129238 -1.23309 0.110553
19 2 20.3514 6.68899 6.76713 -2.55666 -2.19132 -0.798427
94 2 21.2491 5.76391 5.13677 -1.56892 -0.425323 -0.233421
1537 1 23.7576 6.40756 7.33904 0.70319 -0.390796 -0.416469
1469 1 25.1024 5.53059 6.79971 1.31943 1.75589 -1.25614
27 2 30.4672 4.69246 4.67612 0.09424 -1.55745 -0.624111
31 2 32.7444 5.0801 6.36225 1.05737 -0.903155 -2.24166
29 2 32.4803 6.3963 4.72078 -1.6076 -2.59885 -2.7081
2838 2 34.6 5.41335 7.21671 -0.0508964 -0.440656 0.0641353
1481 1 39.2148 6.36405 6.54467 -9.71056 3.05039 0.67134
26028 1 38.9284 5.78506 4.9843 -2.52048 1.33771 1.44557
35 2 38.3694 4.34279 7.26209 -2.47692 -4.74719 0.484101
26107 1 40.7546 6.73828 5.90967 -1.8178 -1.53371 -0.185779
1482 1 40.4334 5.15356 5.35795 -5.09633 3.44874 -2.32893
44 1 42.1008 5.01711 5.38267 -3.01554 3.61419 -3.3711
115 1 43.4206 4.9436 4.39828 2.97638 2.53515 -5.88317
26032 1 41.7141 6.41971 4.53696 3.87222 2.01897 -0.42854
1412 2 44.753 5.06822 5.68491 -0.817387 -2.74072 -2.43097
1410 2 46.7013 5.332 5.07031 0.867864 -1.29164 1.02149
43 2 47.0933 5.4219 7.07269 -0.768736 0.126218 0.463083
1489 2 48.0636 7.23915 6.92608 1.46117 -1.72596 2.24746
1420 1 55.415 5.71862 6.78273 -0.0831586 -4.32592 -0.964943
26044 1 54.7715 7.24503 7.18804 -1.95624 -0.530714 -6.4252
1493 1 54.0905 4.73861 7.10183 -3.24972 0.843767 3.17138
27416 1 56.856 6.49864 6.28652 1.6844 2.90005 5.42148
53 1 58.2382 6.99103 5.42926 -5.10471 -1.066 1.71476
26047 1 58.3496 5.97236 6.83151 -0.648912 -0.0379529 -0.246532
1422 2 60.7344 4.31015 6.43967 0.623393 -1.67473 2.84222
1423 2 59.8432 4.39669 4.34055 -0.228651 -1.51921 0.578255
1425 2 62.6315 4.56702 5.07176 1.55435 0.699382 0.110688
60 2 62.5 5.34849 7.00088 -0.534482 -2.12329 1.92045
26127 2 63.0983 6.52289 4.38434 -0.798257 -0.610814 -0.0812625
1502 2 62.7299 7.34653 6.2594 1.51366 -3.89722 -0.106232
27420 1 67.3589 6.14249 5.93248 -1.99226 0.959897 1.74778
133 1 66.2688 5.24446 5.06581 -0.406451 1.89622 -0.621984
26055 1 67.2713 4.70943 7.08867 0.397154 -2.63737 -0.956062
1426 1 67.9386 4.66997 5.55012 -0.40883 -3.76085 1.58656
1436 1 68.6506 6.79327 6.81929 1.56914 -1.68475 -0.413869
67 2 73.6312 5.23754 6.12873 3.81129 0.215711 -2.06926
69 2 73.2442 7.00351 5.1126 1.25091 2.40198 0.411886
72 2 75.6578 5.81705 5.95142 -2.89922 -2.95193 0.554771
1448 1 77.4448 5.70759 6.0103 1.40443 1.30464 2.21923
75 1 77.6367 4.38987 5.00149 0.053499 -1.11771 -3.06312
76 1 79.1173 5.48668 5.96294 1.35977 -1.63704 -0.658098
4 1 80.3044 6.67423 5.71101 -0.308476 -0.919093 -1.20663
79 1 6.22006 9.8701 5.93079 -0.254121 0.731743 0.11885
1522 1 5.33164 8.77691 6.81639 -0.368706 -0.00777511 1.12134
1521 1 4.8991 7.96968 5.41204 2.21296 3.2056 1.06636
26071 1 5.9958 10.1206 4.30905 -0.628534 0.0397499 -0.168472
227 1 7.35794 9.8076 7.1629 -0.0693493 0.268919 -0.504347
1525 1 8.61612 9.84429 6.01372 0.27305 0.399614 -0.89645
26075 1 7.58079 10.2238 4.75281 -1.33802 -0.134169 -0.781674
8 1 9.87035 10.2194 4.96228 1.31963 0.715511 0.147462
2969 1 9.70086 9.22548 7.1422 1.10759 -1.0135 0.63557
1529 1 10.58 8.70192 4.91811 -0.967702 -0.222049 -1.36775
87 1 12.8093 9.01294 5.75648 1.18493 -0.663788 -1.52318
1527 1 11.2407 9.07592 6.43058 -0.0857379 0.16911 -1.32049
1533 2 15.3756 8.189 6.2439 0.528608 0.113101 1.41364
1457 1 14.2973 9.16299 4.94338 0.509917 1.93488 -0.0399475
26008 2 17.2139 8.24019 5.29838 -1.02875 -1.50119 -0.0257698
96 2 18.1074 8.3182 7.15683 0.13718 2.1766 0.000801782
1468 2 21.7999 8.10172 6.46576 4.87887 -0.19172 1.06719
26088 2 21.6639 8.69776 4.5324 8.05297 0.430483 -2.23267
26087 1 21.7787 10.3765 4.36168 7.25699 0.295867 0.373229
22 1 24.1822 9.78022 6.70758 -1.79242 0.150146 -3.2617
1466 1 25.7838 7.97191 7.2755 -1.02336 -0.657254 -5.11032
26091 1 25.8297 9.40516 6.36328 1.93999 -0.716839 -0.323683
104 1 27.3254 9.61625 5.664 -0.20867 2.42358 -5.44172
1545 1 27.3631 8.53768 7.00675 0.595126 -2.13772 -0.160512
32 2 34.7979 7.45901 7.05617 4.85743 3.06651 1.67526
30 2 33.1499 7.9117 5.94735 2.95958 -1.56757 2.83583
1625 2 33.302 9.77917 6.70309 1.95409 -8.9179 -1.36222
1629 2 35.2633 10.3939 6.21109 1.6584 3.26971 -5.04532
40 2 41.699 8.37435 5.96419 1.81011 0.471649 4.11769
1557 2 43.2798 9.71682 5.89137 1.08659 3.08302 -0.0333695
48 2 48.1395 9.19062 6.58502 -1.84545 2.41555 -3.21856
1567 2 49.9205 8.03071 7.29964 1.06055 -0.534632 -0.0696926
128 2 51.6292 8.92125 6.84878 0.48338 -6.86408 0.648801
26115 2 53.3603 8.15694 6.08202 2.47408 2.45083 1.42922
122 2 54.3722 10.0032 6.03649 -2.03662 4.56953 4.59077
126 2 56.0491 9.0488 5.38227 -1.07839 4.53731 -2.0345
26195 2 54.7023 7.71211 4.59483 11.6511 6.14604 4.22559
26045 1 57.8153 8.5527 6.01039 1.92976 -0.183706 -0.229484
26048 1 59.0405 9.02098 7.05542 0.481226 -0.548833 1.568
26123 1 56.9759 7.85614 7.30896 -1.91462 0.560951 -10.8687
140 2 62.9068 9.3087 5.52671 -2.02825 4.45436 0.589095
64 2 63.5546 10.2983 7.24626 -0.343357 -0.500735 1.72136
26131 1 69.2663 9.01284 4.44758 -3.55836 -0.845916 1.75038
68 1 69.1863 7.98067 5.79114 2.89081 1.54635 -1.94442
26060 1 69.8427 9.48535 5.96824 3.47836 -1.62257 4.48125
1520 2 73.0849 7.66016 7.05192 -1.19924 -1.38185 0.809104
147 2 75.2386 7.41061 4.58495 -0.0650583 -1.50286 0.82247
145 2 75.7945 8.76073 6.0649 0.137401 -0.9396 0.153541
1666 2 76.9678 9.98012 4.44169 -0.687926 -0.158169 0.494399
150 2 77.6942 9.51932 6.3189 -0.39323 -0.295027 0.802459
74 2 79.0333 7.92234 6.21228 -0.124854 -0.760784 -2.06431
83 1 9.96497 11.7218 5.61041 0.72106 -0.0860543 0.737798
163 1 9.99239 13.2313 6.34744 -0.754673 0.221827 0.367938
1456 1 11.1937 10.7386 6.11527 0.727255 0.0692547 0.520563
1526 1 12.8642 10.7081 5.8628 0.71244 -0.82865 -0.882657
1605 2 13.0606 12.4964 6.37173 -1.25616 -1.43748 -0.151602
92 1 15.9238 13.3143 4.38898 -7.42955 1.2286 1.0642
24 1 22.1944 11.5174 6.26313 11.6321 1.69037 -1.76353
100 1 21.2268 11.9124 4.88407 2.28068 -1.56772 1.36726
97 1 23.13 10.4829 5.37572 -7.0851 0.90081 -9.19931
95 1 24.028 11.3959 6.40497 -1.07741 2.86753 7.7657
26167 1 23.2073 12.8768 6.3658 -0.905208 -1.50352 -0.0488493
26096 1 27.9653 12.7505 4.93846 -11.2144 -8.72517 9.4867
181 1 29.457 12.033 5.38181 -1.20582 -3.1607 -5.22824
112 2 32.8263 11.2768 5.42283 -7.71158 -2.14579 -3.50249
184 2 32.2104 12.9489 6.5073 -2.62437 12.0159 1.92116
259 2 35.6653 12.4892 6.3134 -4.34519 5.86719 -10.2166
26180 1 37.171 13.3319 5.10962 -9.57371 2.35737 -0.539247
187 1 39.5333 12.1885 5.78276 -0.468319 -3.71693 2.10103
1554 1 39.4149 11.2517 7.14049 -0.490663 -3.31385 1.78316
1633 1 40.577 12.3925 7.26329 -2.54434 -2.54942 -2.77186
34 2 42.8139 11.0342 4.39584 2.54477 -0.275956 -1.34214
195 1 46.4586 11.8951 5.76984 -2.08108 -1.82163 3.87174
1562 1 45.2571 12.6191 6.72418 -2.8596 2.34135 1.23134
26116 1 46.9497 11.1513 4.36184 -0.385296 2.90112 -6.04958
118 1 48.7019 10.8969 4.74622 -0.71707 4.34859 2.78586
26111 1 47.9345 10.8582 6.21228 -2.05634 -0.687054 -5.5531
26188 1 47.5112 12.3247 6.95266 4.02388 6.6657 2.60354
26114 2 52.5798 10.7861 6.65223 -3.9457 3.99153 -3.50367
197 2 52.1149 11.4242 4.76354 1.49739 -8.29009 6.25135
121 2 50.2922 12.4023 5.11509 8.88387 -4.79247 -3.08167
124 2 52.2656 12.7793 6.57739 -4.28289 1.03202 6.85186
26199 1 59.2484 13.3485 5.74562 -0.0367155 -0.0605787 0.711676
208 1 60.2374 12.4022 4.75613 0.413665 2.56986 1.79734
1654 1 61.3987 12.1049 5.92789 -1.23858 -5.41463 -1.71288
1657 1 60.2647 12.8177 6.99551 -0.109599 0.584361 -0.99059
135 1 62.1934 11.2944 7.16792 -2.82729 2.96045 -3.0592
136 2 62.8963 11.1314 4.58442 2.00244 -3.18845 -1.20136
26212 2 67.3067 12.2714 6.01498 2.84898 1.10073 1.61289
217 2 66.2325 11.3942 4.49415 0.231426 1.72185 2.06058
152 2 78.2219 13.2984 5.07622 0.425152 0.00599944 0.411216
1598 2 6.17113 15.073 4.4426 -0.265963 -1.68972 -0.412423
155 2 4.85644 13.9354 5.5633 1.46762 -0.279484 0.109233
228 2 4.66757 15.3437 7.05588 0.660227 -1.94996 -1.56238
160 1 8.53931 14.9245 7.33172 0.895013 1.59433 -0.226179
1602 1 10.1889 14.9437 7.03051 0.440363 -1.77685 -0.590658
162 2 11.6079 13.7942 5.2546 1.36182 0.460699 1.13415
88 2 13.185 14.5157 6.33774 0.343338 -1.09077 0.470044
1611 2 15.3495 14.1743 5.73325 -0.0745243 -0.341765 -0.488654
243 2 17.2312 14.956 6.03045 -0.409734 1.74453 -0.579974
1614 1 20.9915 13.511 5.44475 -0.262783 -2.07162 -4.99626
1613 1 20.9862 14.7531 6.57517 -0.476311 5.30352 -2.84945
26239 1 22.1312 15.867 5.94022 -0.84828 0.278381 -5.40211
175 1 22.3885 14.0431 7.27105 1.30181 -6.99335 -7.4915
26168 1 22.2356 15.2737 4.41485 -2.38832 6.77381 -0.589947
26163 1 22.6411 13.7978 5.07248 -0.0476859 0.480166 -2.15089
26171 1 27.8135 14.0925 5.98906 -4.44789 14.3395 0.643873
178 1 28.442 14.2937 4.41514 0.959305 -2.46898 -8.38841
26176 1 29.9849 13.614 4.78389 -1.20871 2.86346 -7.18742
255 1 29.9786 15.268 5.24516 -4.89407 5.86864 2.19781
1697 1 29.1013 15.0428 6.71636 1.46984 2.5397 7.55792
1701 1 31.0371 14.3823 6.19902 -3.8348 -1.04116 6.306
179 1 30.5963 15.7159 7.18822 8.56166 1.79841 -6.25625
185 2 34.0421 13.6344 5.85711 6.19162 5.98401 -11.9065
1630 1 37.9024 14.4871 6.07102 -0.857581 -6.23231 2.14468
264 1 38.1028 15.8893 5.13809 1.25876 -3.63386 3.70801
1705 1 38.2628 15.6954 7.17815 -2.78045 1.13809 -2.7809
1631 1 39.4262 13.8817 5.6514 -1.20428 -2.45509 -5.31713
1636 1 40.3768 14.8245 6.73771 -0.247102 -1.51767 1.76338
1706 1 39.4709 16.048 6.05146 -3.25361 -7.48594 3.43556
1709 1 42.6675 14.9895 6.87394 -4.8039 2.21308 5.5684
192 2 42.9182 15.939 5.10149 -1.08311 3.01578 -0.717185
263 1 41.5662 13.6941 7.02428 4.72067 3.32702 -2.6612
275 2 49.6607 15.2023 6.40045 -2.74969 -6.51546 8.05419
196 2 48.6208 16.3817 5.03391 2.92831 0.191618 2.76292
200 2 50.5758 14.4193 4.68744 -3.04793 -0.898877 0.00224765
1642 2 51.4147 14.5774 7.33946 0.394101 -0.223384 -3.39088
1721 1 58.2578 13.523 4.38416 -2.71003 -6.08446 1.77871
203 1 57.2251 14.5484 5.21279 -1.57972 -1.53622 1.97638
207 1 58.1444 14.2811 6.61925 2.32895 2.49371 0.350712
287 2 63.5429 16.0114 4.82281 -1.54905 -2.17803 2.29872
26132 2 66.9005 13.9924 4.9763 -0.89681 2.15516 0.560407
1661 2 66.9361 15.7396 6.15299 -2.55139 4.37521 0.0856108
1733 2 65.5366 16.3675 4.77762 -1.03667 -6.2452 -3.13492
1737 2 68.9988 16.0568 5.78028 -1.98221 -0.654934 -0.865051
295 2 69.5353 14.0541 5.48035 1.35696 2.9498 1.50916
218 2 71.1374 14.8269 4.44279 -0.0338911 1.48188 1.20189
224 2 71.8136 15.6815 6.21438 -0.329159 -0.367698 -0.410339
305 2 79.3912 14.7473 5.98754 -0.688496 -0.0309434 0.217031
26147 2 5.76728 16.6102 5.82076 0.138086 -0.593215 1.08874
226 2 5.02172 17.9904 7.2172 -1.87652 1.61771 0.56047
158 1 7.13521 17.5155 4.74834 -1.10116 0.242033 0.216146
1674 1 7.53743 18.9014 5.64462 -0.470084 -0.569856 0.839347
231 1 8.48451 16.5495 5.04744 -0.141963 1.54234 0.620498
1753 1 8.11437 17.9004 6.8677 -0.533071 -1.29574 0.529841
1746 1 9.4585 17.6274 5.86257 1.78537 -3.1279 3.58941
1681 1 10.1218 16.6127 7.00842 3.83364 -2.60932 1.51248
236 1 9.0151 18.8509 4.81971 -2.67994 -1.15468 -1.51398
240 2 12.473 19.377 6.21924 0.416582 0.263682 1.2394
26235 2 18.2539 16.6809 6.4632 -0.814589 -0.199273 2.17703
26312 1 17.6951 18.6967 4.73223 0.0332288 -1.23388 -0.686428
26237 1 18.9222 17.5573 4.97353 2.19499 3.05895 -0.182946
244 1 18.1726 19.4763 6.18438 -2.43983 0.361588 -1.84312
26311 1 19.6329 18.7372 5.9154 1.21472 2.72001 0.763619
252 1 21.2602 17.1437 6.62776 1.33805 -0.410097 3.33183
397 1 21.2081 18.3413 5.45234 1.99688 0.826116 4.63049
400 1 21.7696 19.415 6.67097 -1.85514 3.80216 -1.26827
251 2 27.0701 19.2395 7.21526 0.311818 0.787337 1.521
331 2 28.4629 18.6748 5.22922 -1.03568 4.87152 -6.55845
339 1 34.012 19.1201 6.07564 -0.230359 1.26141 5.93451
411 1 34.837 18.3918 4.72061 -1.80541 -3.13097 5.69015
1775 1 32.9009 19.1863 7.34485 3.37116 -9.17643 8.69329
335 1 37.0334 16.6536 6.48751 -2.0389 9.86534 -2.98986
1857 1 36.7798 16.8735 4.82914 -5.39999 0.38067 -0.200746
26327 1 35.7688 17.6573 5.957 2.74298 5.26099 -3.07029
1779 1 34.9193 18.3332 7.29104 -6.8656 -8.3988 -2.77134
268 2 41.6642 19.3393 6.75098 5.9 8.67535 -1.49471
341 2 42.7115 17.8527 5.83509 -10.6058 1.97734 1.66959
1638 2 48.4749 17.5804 6.67409 0.937284 -1.05022 -0.717241
280 2 53.7657 18.1662 6.06306 -1.01243 -2.27816 -1.03972
26272 2 55.4904 18.5178 4.98307 -3.09794 -1.85168 -4.68282
26196 2 56.1341 18.3483 6.91676 -3.44221 -9.25131 0.317954
283 2 61.0474 17.9206 4.89908 -1.19505 -3.56191 -0.0956993
1729 2 59.8942 18.8228 6.3426 -10.8911 0.135516 -1.98271
296 1 66.6633 18.0622 6.47471 7.34261 2.86256 8.19289
367 1 67.3697 18.6043 4.99546 2.27047 -1.30033 -0.630214
299 1 72.0268 18.3004 6.1108 2.82964 1.69671 0.0730772
26291 1 74.0297 17.2685 6.21654 0.110825 0.744055 -0.0520965
297 1 72.6519 16.9806 5.27164 -0.309635 0.833054 0.96229
373 1 74.8136 17.8155 4.7977 -0.259237 0.63902 0.149149
300 1 76.3744 16.6406 6.38052 -0.00264933 -0.0894446 -0.0724072
1742 1 76.62 17.6713 5.12218 -0.609465 0.31119 0.529888
1819 2 79.0867 16.7196 5.3727 0.765394 0.544481 -0.385744
303 2 79.3568 18.0023 6.97251 -2.08697 -0.497337 -0.282461
232 1 78.1536 18.1698 4.63503 -0.11677 -0.330847 0.327898
387 2 5.28498 21.9075 6.27584 -9.44167 -1.69296 -7.49632
1825 2 7.23432 21.3483 6.03403 -0.390991 -4.50541 6.92917
26304 1 7.19292 20.1987 4.60728 3.70324 -3.15072 -1.27927
307 2 6.08653 22.5556 4.5705 3.36533 13.8647 1.7178
311 2 9.24851 21.1103 5.93977 -1.68543 -5.79013 1.08972
312 1 8.82796 20.4983 4.47064 3.07871 -0.395811 -0.611997
237 2 11.8155 21.3294 6.37249 0.964546 0.750455 -2.28666
313 2 12.976 22.035 4.76893 -3.47313 0.480685 -9.49687
26232 2 10.5492 22.548 5.2843 9.04841 2.30968 -4.46605
238 2 13.8053 20.1468 4.84485 -0.0811555 0.410843 0.415777
391 1 15.876 21.8233 6.17006 -0.26934 -0.390176 -0.198077
26231 1 15.3478 21.134 4.72401 -0.686322 -0.384704 -0.250437
26236 1 16.5335 19.9458 4.57874 1.01279 -1.95576 0.713485
1761 1 16.8084 20.4398 6.1858 0.140986 1.15997 -2.03164
319 1 18.6731 20.6702 7.27714 -1.47737 2.36605 -3.29475
1769 1 20.1919 19.9958 6.91573 0.2497 0.564858 0.723195
328 2 24.7646 21.6475 6.8412 0.828373 1.31131 0.732687
256 2 26.3825 22.0649 5.62215 2.00943 -2.5244 -1.31355
26319 2 27.8499 20.5563 5.83585 -2.65627 -3.11608 2.24739
24951 2 29.2099 21.4405 4.52779 0.703789 2.78235 8.09797
1702 2 34.8519 22.4401 6.94019 -0.634348 -0.123053 -0.415021
1778 2 35.0273 20.6264 6.03112 0.57893 0.413665 -1.54424
1784 2 36.8881 20.4815 6.8229 0.145746 -0.88006 -0.814085
343 2 38.9357 21.2619 6.25443 -3.05939 -2.38497 -0.759997
26407 2 39.1452 22.6306 4.70234 -1.96831 -1.19616 -2.67595
356 2 48.9991 19.7431 7.05044 -0.957793 1.89081 1.5446
353 2 52.3915 20.7875 5.2286 -2.51104 1.95973 0.52877
26419 2 50.453 20.7759 5.99872 0.0903719 -2.60159 0.222683
1800 2 52.8759 20.7178 7.27764 1.09365 -0.939916 2.73245
1797 2 54.5931 19.6273 7.29181 -1.67957 -0.918062 -1.17342
357 2 57.2316 19.998 6.44572 -10.1203 -0.0485667 -3.19753
26357 2 58.8392 20.2529 5.15784 -5.91195 -3.90563 1.5583
286 2 60.3448 21.5698 4.46224 -1.78042 0.787785 -2.44498
368 1 64.6508 21.3108 6.38645 1.0147 -4.39253 11.7676
365 1 64.4042 22.3563 4.76956 -5.79436 7.82105 3.58457
362 1 65.353 21.039 4.48581 5.4238 9.07521 0.32858
1809 1 66.1194 19.7082 5.15225 -2.80685 1.40925 -1.05866
26360 1 67.1027 21.0307 6.03312 2.29711 -4.36737 3.90063
26359 1 66.7808 21.8793 4.63926 -6.34358 3.32273 2.61857
1813 1 68.1413 19.7261 5.99488 0.757779 -3.33176 -2.54074
363 1 65.893 20.1925 6.75325 -0.954676 -5.72174 0.410488
443 1 68.1798 22.4441 5.41583 -12.8952 -5.07656 -4.84263
1810 1 69.5566 21.8949 6.13508 0.567996 -7.92043 -6.51974
1814 1 69.1021 20.6997 4.97019 5.02418 1.04128 5.64135
1738 2 72.3219 19.9741 5.8318 -2.18929 2.99942 -1.7966
1817 2 72.4385 21.9232 5.17489 3.86518 0.816246 -1.80398
1821 2 75.8138 22.2127 6.64526 0.179314 -3.80109 2.93615
26308 2 12.1906 23.8969 5.23088 -1.20109 -3.18088 12.2673
26383 2 14.9758 24.2404 5.87616 2.31325 -1.14477 1.02985
26384 2 13.5776 25.3415 4.79 0.818138 -2.03387 0.315512
314 1 15.6795 23.1251 7.19082 1.16607 -0.748763 0.0354492
1768 2 16.9875 24.3689 5.58685 -0.318693 -0.249606 0.816667
395 2 18.9826 24.8211 5.33976 -1.3822 -1.80173 1.57722
477 2 22.7078 24.9798 5.52048 1.5684 4.41944 2.50053
26399 2 23.843 23.335 6.05268 0.135276 0.638783 -1.25779
402 2 25.0442 24.3794 7.31355 0.576008 -0.931588 2.5155
26393 2 24.7999 24.0215 4.31239 4.05646 -4.61256 -0.94458
26397 2 25.7786 25.4539 5.77524 -1.97175 -0.0197237 0.541118
406 2 26.7769 23.9577 4.74131 2.16993 1.46027 -4.69751
327 2 28.549 23.18 5.51043 6.22212 -1.17505 -4.66776
325 2 27.3275 23.0998 7.16533 0.652359 1.18448 -1.03295
26328 2 32.9452 22.7684 4.48495 -1.56018 4.2415 0.253864
1849 2 34.6303 23.6655 5.27941 -1.33104 -1.24265 0.931935
340 2 37.7541 24.4309 6.36027 -0.764307 -0.0459055 -1.22758
408 2 35.7506 25.0311 6.41696 -0.996107 -2.12805 -3.97969
415 2 37.615 23.9744 4.34776 -1.28049 -0.627057 -1.84658
338 2 39.7637 23.9928 6.08407 0.478352 1.12665 -0.0404938
342 2 41.6804 23.2186 6.98026 -1.61893 0.743547 4.79297
26413 1 43.0519 24.2559 6.65467 -1.14204 0.419897 3.53847
26336 1 44.2666 25.3814 6.34154 -1.55313 0.373596 0.288876
421 1 45.8926 23.566 6.7234 1.325 -0.641344 -0.693381
418 1 45.5511 24.6748 5.52222 -1.80586 -0.998199 -0.831725
345 1 46.5782 23.4755 4.98897 0.542855 1.59472 -0.709329
26411 1 47.9952 23.9784 5.76348 0.303347 1.88069 -0.229413
348 1 47.4615 23.0434 7.05324 -0.715516 -0.592091 1.48918
428 1 49.2577 24.9261 6.3065 1.12465 -0.00937943 2.2796
26424 1 48.9391 25.1523 4.67786 -0.0572458 0.843239 0.615182
427 1 50.5266 24.0082 6.93266 -1.36165 -0.887825 0.667083
429 2 50.6292 25.0184 4.31915 -0.826886 0.731312 -1.95971
1873 1 51.9285 23.1907 7.31963 -0.253087 1.20285 1.27263
431 1 53.4539 23.4912 6.36336 0.904725 1.13972 -1.07622
1798 1 53.9928 22.6446 5.04747 -4.84336 1.46473 -2.03858
1880 2 54.9716 23.5263 7.27873 -1.22273 -3.67233 -0.147659
1877 2 55.2803 25.4987 7.13925 2.96882 -4.5267 -2.59717
26356 1 61.9698 25.2473 4.85488 0.703714 -9.79357 -5.63276
439 1 63.0886 24.1902 5.66746 4.17677 2.71633 2.07925
1806 1 64.0508 22.9066 6.39314 -6.67172 -8.3407 14.5329
1883 1 62.9175 25.3641 6.82082 -1.92537 2.28569 3.66173
26435 1 68.4764 24.8986 6.4027 26.7587 18.965 -3.34082
515 1 66.7693 25.392 5.99647 -4.70016 30.9453 12.8422
372 1 69.1086 23.3964 6.38853 -17.1715 -8.03265 2.98189
448 1 69.9677 24.8657 6.99274 8.09615 -4.7966 12.6272
523 1 71.4713 25.0978 6.96074 10.3865 13.2612 23.0034
376 2 74.1246 23.0854 5.90516 -3.15496 7.51937 -0.924051
1893 2 73.7788 25.1363 5.53491 4.33 11.2145 1.98668
308 1 76.7754 23.5468 6.65803 -3.19054 -0.919305 -2.50222
1897 1 77.7038 24.917 6.83933 1.87357 0.61075 -12.9095
26372 1 78.6076 24.6916 5.49537 -5.9395 4.89022 0.974921
374 1 80.0125 24.3561 4.76768 -16.9505 -6.28505 2.52467
1896 1 79.8617 25.6767 6.03386 -5.80524 -8.89182 -5.81555
384 1 4.36776 26.3633 7.34789 -7.95374 -4.70962 8.07264
26451 1 8.45779 26.1106 6.19509 3.24127 -3.88068 1.57297
1909 1 9.76526 27 6.81984 1.26556 6.43364 -0.35743
464 2 8.37515 26.7926 4.51116 4.9843 0.455942 -4.06742
26456 1 7.35043 26.8118 7.26571 -29.6738 -19.8923 13.3328
392 1 10.9445 25.7641 7.02722 5.38859 -5.66815 1.02751
386 1 11.5692 26.4182 5.64248 -0.290073 -0.479119 1.83919
26455 1 11.9677 27.5738 6.83535 5.97052 -7.62977 1.2004
1837 2 16.1507 26.1766 6.00452 0.406004 -0.846263 0.908608
393 2 15.0083 26.8068 4.40129 1.64273 -0.77974 0.593475
1839 2 17.3186 27.7151 6.7846 0.41043 1.68115 1.00652
1921 2 18.6963 27.6414 5.23099 -0.69578 0.297084 -0.170504
399 2 19.7931 26.3801 6.46724 -0.0222701 0.0442023 -0.75672
475 2 21.43 26.5445 5.19912 -1.3457 -0.0863611 -0.681552
26391 2 24.0653 26.2597 6.54035 -4.30184 1.29429 -2.83661
1930 1 34.2205 28.3225 5.24407 -4.14859 -3.1597 -1.35813
487 1 35.7576 28.0329 5.76386 1.66312 -4.02937 -1.50843
1854 2 35.7751 26.4222 4.86673 -0.842945 -0.531076 -0.284779
26632 1 37.0162 27.6136 6.85205 2.62592 4.70038 -6.93997
491 1 38.0987 28.2248 5.78571 -3.24826 -1.53093 -3.17304
502 2 46.0434 27.6096 5.38116 -1.35364 -0.163321 -0.412914
503 1 48.7911 28.1893 6.08026 2.78228 -0.127213 -0.66156
26495 1 49.2332 26.6413 6.45829 -3.00167 -0.553128 1.28901
426 1 48.7965 26.8088 4.8788 -2.87527 -0.521855 -0.86185
1953 2 55.2536 25.7254 5.08906 -3.349 0.500114 -1.67277
507 2 53.5027 26.9579 5.24669 -11.0259 -14.4233 -3.44431
1874 2 54.7629 27.4201 6.78876 0.208562 1.88693 9.56643
1950 2 56.0614 27.6305 5.20834 6.89467 -2.47857 -4.80034
26504 1 58.7713 27.1484 4.68787 1.35691 -3.97886 -1.74382
1881 1 61.5094 26.0793 6.28104 4.40002 -0.211803 -2.85896
1802 1 60.1725 26.6031 5.49411 -7.20914 8.21877 5.56331
591 1 64.8337 26.6586 7.00296 0.369165 -67.131 10.4953
519 1 66.9167 27.1186 5.35362 18.897 -27.1159 -20.227
26516 1 68.1314 27.0994 6.70004 4.79802 31.5437 34.828
1962 1 67.2796 28.6702 5.58866 25.0125 0.506796 -48.8868
26583 1 65.7572 27.8328 4.31534 12.0491 7.08968 -37.8604
1886 1 69.8617 26.5615 6.74895 7.78925 -4.88656 34.2601
522 1 68.6792 28.0251 5.03447 -8.084 -11.0137 49.8231
456 2 74.061 27.1335 5.58185 4.15674 4.83132 -5.65247
1894 2 75.4923 28.4882 6.58058 -2.89621 -10.3972 11.6055
1974 2 77.3143 27.8854 7.14149 -1.82268 -4.75257 -0.487714
1901 1 78.7323 26.2265 7.08362 1.53243 -2.56525 -15.3411
459 2 6.28367 29.7255 5.06249 1.02216 -0.989383 2.50452
1902 2 6.43323 29.9927 7.15729 -8.20673 -7.16177 4.62023
26527 2 6.0168 31.7228 5.59703 -0.54349 -3.34504 3.55079
26460 1 15.0666 30.4667 7.04625 -1.36194 -0.0160454 -2.29329
466 1 15.4205 30.8332 5.42824 0.586884 -0.77975 3.98755
472 1 16.6361 31.055 7.32057 -1.37722 0.062536 -1.7708
469 1 16.893 30.0455 5.2952 -0.138059 -0.768208 2.16628
473 1 17.4308 29.667 6.83984 1.94861 -0.453372 -0.353382
1914 1 18.868 30.484 6.47256 1.0064 0.448567 -0.112864
26463 1 17.976 31.335 5.33226 0.24584 -1.70362 1.38829
1922 2 27.4791 31.5642 6.92418 0.239037 0.274008 -1.66229
412 1 32.6799 28.9211 5.08037 0.834075 0.379036 2.96877
1929 1 33.5357 29.1175 6.5309 -2.86004 1.11458 1.97325
26479 1 32.0583 30.4937 5.55766 1.94084 -2.57568 1.28486
483 1 32.3676 30.0975 7.18149 -3.77652 4.57536 -5.78494
416 1 37.3099 29.1011 4.60438 5.0811 -4.0158 -0.86201
492 2 35.2632 31.3794 5.04893 -1.30125 -2.44192 3.05271
1933 1 36.0441 29.6874 5.59143 -2.78839 -2.43234 -1.61346
496 1 37.1172 29.5115 6.91366 -7.17583 6.75057 -3.40952
1938 1 39.3472 29.2148 5.35835 -4.38958 -2.0743 -1.47181
1862 1 40.073 29.8361 6.72468 -2.00419 0.496113 1.09551
26412 1 40.6376 30.2417 5.0289 -0.256724 -2.27818 1.48674
26488 1 41.9829 31.1069 4.6515 -2.7673 -1.4005 3.25846
567 2 42.6926 31.4206 6.31084 -1.31438 0.854532 3.40288
1945 2 46.2276 28.9699 6.91353 -2.63689 -2.06022 -1.12804
498 1 49.0865 28.9804 4.60272 -3.66222 2.86459 -0.325153
1942 1 48.1892 29.5484 6.89001 -1.67344 0.338979 -1.65473
497 1 48.1324 30.1487 5.31353 -1.05424 2.51332 0.504157
26491 1 47.2235 31.3334 6.01532 0.14 -0.892669 -1.24219
26571 1 51.4221 31.0808 5.11403 2.61102 -2.65279 -3.1662
26500 1 53.0606 31.452 5.14538 5.07189 1.16351 3.89004
504 1 50.8592 31.7621 6.54206 -0.234011 0.414421 -2.28589
436 2 53.29 28.9499 4.36744 -3.70547 -1.19787 -1.84295
1958 2 64.8069 30.506 4.79175 7.5808 25.7411 22.6844
520 1 65.7022 29.1499 5.44002 -1.54387 -23.9815 13.3971
525 1 69.8118 29.4254 5.40473 10.8892 -13.0472 -3.71137
26520 1 70.1828 30.7561 4.41358 -16.8901 -10.9025 -0.113983
450 2 74.0587 29.1438 5.4248 7.5028 -5.96977 0.73243
26519 2 73.6588 30.9614 6.1711 4.69097 1.46112 -1.12699
532 2 78.7703 30.8696 7.30876 2.70484 -2.50006 -4.01568
2049 2 80.5292 31.3403 6.3298 1.54275 2.28529 -0.0335887
1977 1 79.6145 31.4098 4.87944 -2.31552 -1.01491 -0.68891
536 2 5.90508 33.5942 6.50691 -0.411459 1.27785 -0.734387
534 2 8.09015 31.9238 5.84332 5.0956 2.67864 -5.39311
535 2 7.91687 33.7836 6.77351 -1.34114 4.78569 -5.7363
26532 1 9.81993 32.3518 5.61066 3.79062 -2.74308 -0.568559
26531 1 11.4589 32.6215 5.31827 -0.15248 -6.3317 -1.09395
539 1 12.2894 31.8953 6.53283 3.18308 -4.0106 2.39367
544 1 13.102 33.1517 5.89264 -0.306171 -4.22996 -1.47253
468 1 15.5852 32.5303 5.55689 -1.30078 -0.159921 0.875352
543 1 14.4494 32.673 6.80693 -0.712018 0.149854 -0.284724
1990 1 13.8757 34.5278 5.37607 0.210796 4.28218 -0.879619
2062 1 15.803 34.6393 6.56056 0.101179 2.7257 0.214521
542 1 15.4697 34.1234 4.99363 1.0951 1.56082 1.67381
548 1 16.6606 33.2087 6.72392 -0.83775 -1.00596 0.973163
547 1 19.5722 31.9567 6.84286 0.822441 -1.09828 -0.0458388
2065 1 17.9075 32.0615 6.86567 2.64143 -1.59193 2.50992
476 2 21.059 32.2924 5.95289 2.38726 1.11062 0.208395
556 2 25.5863 32.2306 6.65886 0.347156 -0.832288 0.286495
26547 2 23.7192 34.3955 5.45466 -0.563373 0.514413 1.07263
551 2 23.6368 32.7869 6.7359 -1.04004 1.51171 0.77245
559 2 27.8071 32.073 4.94032 2.00325 2.56864 0.780017
554 2 26.0727 33.2052 4.91387 1.32403 -1.80521 -1.38449
484 2 29.3933 31.9013 6.21814 0.795491 3.57603 -1.49866
26551 1 30.6865 34.4825 5.19471 2.62432 -4.70866 -3.87541
2005 1 30.6971 34.4054 6.8514 -4.46387 4.39216 2.93049
2009 1 31.7688 33.2798 5.7012 3.20324 3.16955 -1.47096
26631 1 32.1819 34.8196 6.24863 1.70298 -3.18023 0.454931
26480 1 32.3124 31.8924 6.49573 2.50574 0.754179 3.37189
488 2 34.231 32.3291 6.53294 -6.00444 -1.42082 4.42916
2006 2 36.4012 32.886 6.38097 1.87621 -2.14995 -2.33295
486 2 36.9364 32.47 4.46125 -1.40495 -0.468271 1.54992
26560 2 38.1267 33.9872 6.63251 1.45822 3.40832 -0.0851783
2013 2 40.1119 34.5592 6.65149 -1.09904 -1.00757 0.918422
26559 2 38.4357 33.9319 4.58679 2.74023 4.03386 -1.56521
571 2 41.7229 33.2783 6.33236 -0.576951 0.442041 1.19821
26492 1 46.7579 33.4284 6.42109 -0.780964 2.409 0.664971
574 1 46.1048 33.9432 4.93046 0.0580511 -0.024159 1.92027
573 1 46.6103 32.3823 4.85774 0.805443 -0.0764635 3.7337
575 1 48.6942 32.0766 6.11819 -1.2172 -2.38488 3.10582
26568 1 48.3734 33.7299 5.97683 5.49921 -0.527168 0.776934
26567 1 50.0433 33.8532 6.16169 2.89053 -0.264526 -0.491865
26569 1 47.7004 33.7748 4.4136 -2.2152 -0.847316 -2.65986
26496 1 50.0558 32.4506 5.18005 1.01319 -3.58593 -1.25749
2022 1 51.4891 33.0717 4.52299 -1.99162 -3.75328 -0.687317
2025 1 51.6397 33.2289 6.20782 1.84309 1.11502 2.36967
584 1 52.4725 34.6979 6.01758 4.70076 3.84492 -2.50751
577 1 53.1871 32.6206 6.35651 0.274141 1.29005 -0.61022
655 1 51.6971 34.74 4.48465 -18.17 -14.5761 3.20839
26580 1 54.8728 32.6604 6.20826 -3.74372 2.84112 -2.82623
588 1 55.1193 34.1457 5.39793 -0.704074 0.467853 1.53422
659 1 53.4487 34.0495 7.24779 1.53981 4.45316 3.69589
583 1 56.2413 34.2929 6.68182 0.881291 -3.08582 1.68657
1954 1 58.1195 33.0929 6.52793 -7.51867 9.51148 3.42812
581 1 56.5541 32.7781 6.02725 -4.21144 3.58415 3.59819
585 1 56.2843 33.3987 4.4438 1.689 -1.45109 5.764
516 2 58.9486 32.5103 5.40412 -20.7435 2.25085 -0.356364
2035 2 60.5418 33.4634 6.36033 -13.8359 -2.61382 4.02947
2030 2 61.5256 33.6479 4.53253 4.36479 0.30653 5.41072
592 2 62.8737 33.7054 6.03988 6.35109 33.7199 -22.7393
1957 2 64.172 31.8785 7.21089 -3.17244 11.664 -20.703
26584 2 63.318 32.278 4.56043 18.8974 -24.8106 23.2915
2041 2 70.1891 33.7026 5.60322 8.29605 0.244296 2.13947
601 2 71.615 32.2708 5.2334 10.0573 -7.87382 1.10162
528 2 73.6049 33.0257 6.81492 -8.94809 -1.66389 -3.24198
604 2 72.4253 34.1359 5.41895 0.981396 -0.721151 -1.55089
2045 2 74.7384 33.1945 5.14168 6.12182 -0.462465 -2.42061
684 2 75.4263 34.7799 6.75582 3.91252 1.42483 5.57615
2046 2 80.4139 33.2035 7.20219 0.997788 3.02411 -1.76932
540 2 9.23093 37.0656 7.11594 0.367508 -2.39103 1.59651
613 2 10.2866 37.2223 4.36114 2.44248 1.3973 4.41102
2057 2 11.1122 37.0762 6.24105 -1.80661 -1.46091 -0.955156
620 2 13.1664 36.8757 6.47679 0.0263744 -1.03886 -0.313945
619 1 14.5056 35.6801 6.42581 0.00762695 0.431456 -0.517233
2069 2 21.9071 37.4152 6.30435 1.61711 0.236872 -2.35001
26695 2 20.2862 37.6519 5.07798 0.142056 0.272307 0.359966
631 2 24.6189 35.5111 6.92698 -0.323334 0.760931 0.0757725
2073 2 24.7977 37.2247 5.76825 0.796856 -0.862747 -0.494013
550 2 23.1168 37.4118 4.5998 -0.0451386 1.07968 0.929705
26556 1 30.1196 36.5345 6.26901 -5.1455 -1.7391 -3.16396
561 1 30.6223 36.1049 4.72336 -1.33932 5.01352 -0.261408
2233 1 31.7469 36.4659 6.15328 5.56826 -3.29534 -0.364863
26627 1 29.5054 35.3931 7.34037 -1.11936 2.10813 -0.49114
640 2 32.928 37.6503 6.29464 -2.9492 9.39601 1.53696
639 2 36.979 35.7103 6.44286 -4.08726 -3.68532 2.39441
566 2 39.9983 35.2074 4.69309 1.08834 -1.49786 1.61353
570 2 42.7652 35.0161 6.59488 0.344415 -1.51118 -0.624983
26639 2 44.3529 35.761 5.48153 -0.799761 0.582105 -1.72954
26644 2 45.2047 37.0447 6.97971 0.906028 -1.54836 1.89045
651 1 50.9509 35.2309 6.58196 3.97192 1.45839 -0.164433
653 1 52.1542 36.9498 6.1665 -4.69631 4.2997 17.3099
2094 1 51.1066 36.1633 5.18907 3.28514 -12.0806 -6.95645
2098 1 52.6253 36.3727 4.83012 -12.3391 -18.8573 0.882344
2101 1 53.8692 35.2727 5.16368 -2.97659 -0.117294 0.0979835
676 1 65.1646 37.6242 5.17493 -5.79217 -1.63211 -19.0936
26735 1 62.7848 37.4104 4.36923 -3.42758 2.15526 -7.04111
671 1 64.717 36.51 6.4701 0.332203 -11.7007 -16.7235
674 2 70.1264 37.0991 4.86841 -0.959714 -8.1111 -12.799
599 2 72.0505 35.1225 7.23873 -5.04899 2.58508 1.46973
598 2 71.6368 36.8541 6.25401 9.3341 -1.70216 1.14048
678 2 73.6648 36.0443 6.59988 -0.537963 3.19272 -0.893091
26672 2 73.4475 35.7638 4.63072 -6.80571 2.48727 3.63192
26671 2 75.358 35.1064 4.66453 -3.07565 6.28246 3.87913
26676 2 77.4279 35.0871 6.98386 1.14792 -5.09201 2.00404
26604 1 77.5506 36.4101 5.26393 2.98449 -1.47417 4.58994
26603 1 79.784 37.2058 6.16008 -0.768773 -1.77466 -4.59364