ITEM: TIMESTEP
190000
ITEM: NUMBER OF ATOMS
27436
ITEM: BOX BOUNDS pp pp pp
4.3693031008661904e+00 8.0630696899137050e+01
4.3693031008661904e+00 8.0630696899137050e+01
4.3693031008661904e+00 8.0630696899137050e+01
ITEM: ATOMS id type x y z vx vy vz
25995 2 7.89325 4.42207 4.37978 -1.15648 -0.0298382 -1.49391
25999 2 15.2257 4.55947 5.67077 -0.0267898 -0.0253557 -0.170407
1454 2 16.1895 6.38184 5.54369 0.727541 -1.17157 -0.0349575
10 2 17.4843 4.95586 4.82037 -0.269755 1.06185 0.82694
1458 2 18.1162 4.51604 6.77672 2.09257 -0.825493 1.16974
1530 2 17.2935 6.36089 7.28365 1.17 0.287772 -0.189836
26016 2 21.0707 7.0177 5.24249 0.704065 0.341397 0.878356
19 2 19.919 5.55152 7.1132 0.742811 -0.354754 1.64783
1549 1 25.5835 7.10566 5.38097 -1.20812 0.103612 3.57143
1473 2 31.8229 4.48979 7.24552 1.01955 0.129566 0.0996278
29 2 33.8581 6.21838 5.17694 0.324616 -0.753015 -0.32154
31 2 34.287 6.30308 7.20529 -0.274506 -0.0940762 -0.126907
2839 2 32.9061 4.40609 5.50535 -0.258557 0.181823 0.463422
1481 1 37.5589 6.71395 6.33238 0.91267 0.263748 -0.184536
26028 1 38.1549 6.23721 4.8237 -0.619587 -0.958416 -0.830086
26032 1 39.6385 6.9871 4.55828 -0.048498 -0.567703 -0.357427
1482 1 41.7459 5.99167 4.38566 0.0804724 -0.167928 0.226936
1412 2 45.7593 4.59683 5.58181 -0.905631 -0.133857 0.988152
1489 2 46.0209 6.29656 6.74129 -1.063 -0.0759051 -0.914172
115 1 44.4483 5.0533 4.38475 0.215276 -0.00191779 0.657862
1567 2 48.0779 6.03407 6.57597 -0.343394 -0.382517 0.978054
26036 2 49.3126 4.70527 5.65058 0.131552 -0.0620305 0.104456
27406 2 51.3401 4.69307 5.18508 0.209192 -0.0641084 -0.590762
27416 1 55.5776 5.68817 7.04137 -1.24702 0.501735 1.52713
2862 2 53.2881 4.81901 4.49176 -0.488586 0.238532 -0.629814
53 1 56.8417 6.68321 6.50097 0.523926 -0.126541 1.29065
55 2 58.595 4.77308 6.10968 0.0599105 0.0314817 -0.300263
1423 2 60.0492 4.76423 4.67586 -0.0955807 0.214537 -0.406109
1422 2 61.9019 5.32511 5.39866 -0.0862692 0.403989 -1.17425
60 2 62.979 6.17244 6.97658 1.26503 0.183122 0.382697
133 1 67.4606 5.09029 5.64518 0.137587 3.88694 0.961832
1430 1 66.9133 4.7898 7.22405 0.624764 0.130478 -0.490076
27420 1 68.04 6.62224 5.97363 -1.62739 0.0599961 -0.10288
1426 1 68.9855 4.46361 5.93435 0.722819 0.372722 1.29104
67 2 73.1756 5.42034 6.04666 1.83223 -0.0113611 -1.09137
1513 2 74.2739 6.49842 4.63833 -0.60849 -0.630087 0.365777
65 2 75.3609 6.70855 6.3835 1.16141 0.17286 -0.470645
72 2 74.7664 4.96458 7.27027 0.493443 1.10721 0.534451
75 1 78.2071 5.23945 4.57322 0.349419 -1.08409 -0.844188
4 1 5.28751 7.43167 4.88213 1.23531 0.84384 1.20804
1521 1 6.12282 8.53431 5.78501 -0.511767 -1.00682 0.150551
227 1 6.99501 9.97367 5.78605 -3.13251 -1.38702 -0.705632
2969 1 9.34866 9.49019 6.84074 3.10991 -1.6319 0.630069
26075 1 9.74304 10.3487 4.52949 2.59509 3.12199 -0.784436
87 1 12.0139 9.28928 5.60855 -0.0861823 0.796149 -1.10128
1527 1 10.9049 10.0565 6.61584 2.18902 -2.29351 0.134689
1457 1 13.2218 8.39789 4.907 -2.80572 1.41987 -2.01516
1533 2 14.3547 9.06175 5.94318 5.36902 2.0854 1.65785
26008 2 16.278 8.44004 5.55332 3.23918 1.42788 -0.164319
91 2 19.0427 7.35913 6.76629 -0.0691718 0.458271 0.419699
96 2 18.3571 8.6741 5.32035 -1.03711 0.367052 0.801501
1620 2 18.0814 10.2347 6.67975 -0.091225 -0.218573 1.45645
1468 2 20.4115 8.91093 5.56382 0.940841 0.507719 -0.738457
1539 2 20.2936 10.1911 7.16965 0.287154 -1.26374 -1.00303
2840 1 25.437 7.48926 7.00297 2.03228 0.246105 -1.36034
26091 1 25.3941 8.70778 5.07701 -1.50798 -0.638471 -1.14461
22 1 24.2241 9.80983 5.47453 -2.61214 -0.263205 1.87759
2913 1 24.673 9.63037 7.12533 -0.39478 -0.584111 -4.05046
1538 1 26.1287 8.96723 6.57312 1.24369 3.04435 -0.445389
30 2 32.9851 8.07971 5.26032 0.724624 -0.0736299 -0.0462264
32 2 33.4105 8.17047 7.2582 0.314653 -0.26028 0.0247876
1474 2 34.635 9.81312 7.34098 0.0807928 -0.760983 -0.802454
26104 2 34.7038 8.80958 4.44039 -0.348112 0.393774 -0.386762
1408 1 37.9217 8.35397 7.0848 0.640029 0.482945 -0.867969
26107 1 38.7328 7.72366 5.77361 0.589876 -1.01847 -0.0380801
1558 2 43.3587 9.75237 6.9616 2.86032 0.799652 1.04779
2998 2 43.9406 9.83038 5.00093 0.02608 -0.586641 -1.54457
116 2 45.4155 10.3841 6.29986 2.62997 -0.701091 0.0959371
128 2 49.6582 7.34423 6.61066 -0.756187 0.349187 2.40676
26114 2 49.5212 10.0621 6.97162 -1.68842 0.225655 -1.49194
48 2 47.4837 10.2566 6.64068 -2.72835 0.259046 -0.647605
26115 2 51.0921 8.78805 6.38434 -1.92117 0.241997 0.183904
26120 2 52.8768 10.3103 5.75698 -0.130776 -0.64237 0.9132
126 2 54.257 8.84254 6.04498 2.38528 -2.06926 1.70203
26045 1 55.6264 7.84422 6.37073 -1.6325 -0.552564 -2.00771
1502 2 62.1651 7.8976 6.25474 -0.118899 -0.123142 -0.581544
140 2 62.2882 9.83673 5.61206 -0.478548 0.337615 -0.0672384
68 1 68.8744 8.01799 6.35425 -2.09987 -0.626814 -2.30062
26060 1 69.788 8.59202 5.06883 -1.79165 0.985781 0.280097
71 2 73.9738 8.17573 6.93055 1.10744 -0.11452 -0.530496
69 2 76.3967 8.17021 5.40331 -1.15972 1.67533 0.797932
145 2 75.3809 9.64387 6.45704 -1.3936 1.96989 -0.84801
150 2 77.3026 10.4276 6.54289 -0.715698 0.366048 -0.298956
74 2 78.171 8.53971 6.38992 -0.106048 1.53575 -0.868089
1525 1 8.59171 10.5902 5.77782 0.808688 -1.59841 0.346047
8 1 9.57399 11.8984 6.24343 -6.33453 2.11604 1.54261
83 1 10.4859 13.1393 6.90794 2.65905 0.591971 0.21753
1529 1 10.9267 11.2802 5.4207 1.28522 -1.12397 1.91464
1526 1 11.8926 12.4558 6.20627 1.06142 0.649602 2.56533
26004 1 12.3666 10.6626 4.6932 2.49417 4.06604 0.844277
1605 2 13.1658 13.4108 7.15553 -5.90871 -0.0483026 1.89017
26080 1 13.1302 12.0983 5.0944 -3.22704 6.06315 -6.91465
24 1 22.5519 12.6383 5.60905 5.62809 -0.0802051 -1.00037
95 1 24.0145 11.174 6.74497 -1.27874 1.90907 1.94467
26167 1 23.8301 12.8358 6.74962 9.93525 -5.01075 -4.10714
97 1 23.078 11.0393 5.37889 -3.05343 -2.32139 -1.1261
1626 2 30.4623 12.1461 7.00822 -1.53341 1.098 0.872518
1625 2 31.9239 11.1881 5.8705 -0.261716 -0.467291 0.179018
185 2 34.7793 10.5713 5.41153 -0.215926 -0.863232 0.200685
259 2 35.1177 12.4753 6.11862 -1.14782 -0.121563 0.0147586
189 1 37.3813 12.0554 4.75934 -2.02129 0.353484 -0.379372
1631 1 37.6796 12.872 6.22229 1.12584 -0.0940573 -0.198586
26108 1 38.2061 10.687 5.24971 -0.0313657 2.40845 0.352757
187 1 38.7193 11.5753 6.57142 0.444587 -0.223633 -0.502271
1562 1 45.5674 12.0885 7.11982 0.0759327 2.47467 -0.125737
114 1 46.8325 12.6767 4.53239 2.25102 2.44778 -0.732259
195 1 46.2638 13.1233 6.04355 1.40228 -0.701361 0.790578
34 2 48.3113 13.5341 80.589 2.35603 3.71278 -2.46396
26191 2 51.7629 12.0096 5.59185 -0.859997 -0.577998 -2.57678
197 2 50.9199 11.5316 7.4372 1.01121 3.65448 3.26875
26199 1 58.1944 13.2569 6.43725 1.55894 1.21116 -1.72635
208 1 58.9969 12.0568 5.63477 -2.18208 -2.07269 -1.63932
130 1 57.6618 11.8645 4.64367 1.53111 -1.80977 0.313108
1654 1 60.3415 12.1745 6.6487 -3.58252 2.19584 0.4385
136 2 61.3349 11.5994 5.13542 -0.29682 -0.0944448 -0.310107
26212 2 66.4859 11.8801 5.61279 -0.651696 2.21013 -0.779884
1662 2 69.1873 13.0495 7.24903 1.77352 3.01339 1.14329
1666 2 77.3909 10.6335 4.4923 0.509547 -0.111476 -0.674348
152 2 79.2219 12.8149 5.41194 0.462118 -0.114311 -0.151825
160 1 8.6597 14.6901 6.83008 0.0891299 -1.10875 1.16635
163 1 10.326 14.794 6.66576 -0.706794 0.491662 -0.780252
1602 1 9.68165 16.4105 7.2915 1.63114 0.0494287 -0.420052
1681 1 10.6338 16.2614 5.94188 -0.135793 0.172026 -0.116749
88 2 13.1739 14.7128 5.55691 1.61719 -13.9122 -1.93985
1611 2 15.0415 13.9421 5.68609 -0.0421667 -2.67119 -2.34079
1613 1 21.9305 14.1685 5.9397 -2.72578 -0.547563 0.8961
26239 1 21.3731 15.6563 6.57958 3.31592 3.38622 -4.53993
174 1 20.2903 15.7863 4.79465 -2.41239 -1.85542 -5.53044
1614 1 20.7804 14.2036 4.59881 -6.60134 -1.27559 -4.58577
26168 1 21.9035 16.159 5.11279 2.21048 -6.3205 9.62296
26096 1 24.5218 14.164 5.93001 -3.18343 -0.37558 0.952018
26163 1 23.2585 14.862 5.1501 3.68368 -1.81595 -1.91208
26171 1 25.0165 15.2682 4.79628 1.06283 1.09822 -0.304908
1697 1 26.1059 14.1207 6.58244 0.380961 -1.77875 -3.02118
181 1 26.1399 15.7099 5.93233 1.13501 0.1739 -3.49295
179 1 27.6897 13.9045 5.93717 -2.49562 2.32647 3.50947
26176 1 27.5875 15.4056 5.15861 0.689368 -0.0118941 1.98931
183 1 28.6799 15.1759 6.42866 -0.310508 0.752928 -1.79423
184 2 30.965 13.6063 5.64852 0.382729 0.724518 -0.548321
3219 1 30.3877 15.4471 7.00342 0.221503 -0.0580031 -0.946654
1701 1 31.7743 14.5132 6.91291 1.08245 2.45999 -2.15908
3142 1 31.435 16.745 7.04707 -1.32135 -1.13283 -1.15672
26180 1 36.3027 13.8094 5.82223 -0.19358 2.22844 0.378635
1630 1 37.0801 15.2925 5.82947 -0.543385 1.07491 -0.420678
1705 1 36.9617 15.4104 7.49128 -2.36395 1.56359 -0.967504
335 1 35.885 16.6976 7.62178 3.64054 0.608157 5.38773
1636 1 38.2154 14.0675 7.31877 -0.346918 3.01771 1.21032
264 1 38.1801 16.5216 6.05432 -1.21581 2.03194 1.22142
196 2 49.5423 17.2013 5.71279 4.91416 2.9931 -5.65937
121 2 51.0783 13.9083 6.07661 0.448799 -1.5753 -1.23691
275 2 50.8578 15.9208 6.73231 -0.550786 0.231581 -1.89421
1721 1 57.2573 13.4637 5.04455 -1.20301 -0.241818 -1.7142
203 1 56.8211 15.0874 5.38245 -7.07372 0.774283 -11.4533
207 1 57.243 15.8255 6.88335 0.421287 2.15281 -1.87831
1651 1 57.2136 14.1924 7.41387 3.32075 -0.972489 1.23767
1733 2 64.1991 15.4841 4.44148 0.567374 -0.946619 2.67039
26132 2 66.6568 13.5683 4.48639 0.338165 -3.21246 0.672254
1661 2 65.9259 15.1961 5.56141 -0.475103 -0.876824 -2.88615
1737 2 67.7209 16.1949 5.1908 -1.46011 -1.55996 0.242177
295 2 68.3752 14.355 5.91686 1.41286 1.77091 -2.80889
224 2 70.4415 15.6825 6.2215 -0.0226177 -1.80404 0.441469
218 2 70.4741 14.0898 4.93044 -3.83402 -2.29153 0.243722
373 1 73.9222 15.7161 5.38743 1.48293 -1.96049 -2.01048
297 1 72.0929 15.8991 5.54074 1.11611 -0.250178 -8.61426
300 1 74.104 14.3056 4.4821 -0.0216336 2.54792 -1.50773
1741 1 72.4962 16.5482 7.07046 -1.08658 -0.525091 -3.64911
228 2 79.9391 13.9306 6.96986 -0.462489 0.00990629 -0.175436
1819 2 79.8948 14.3998 80.5751 -0.0486969 0.120172 -0.134637
1753 1 7.28838 16.8542 7.32164 -0.142651 -0.459204 0.177841
158 1 7.64083 18.339 5.51111 -1.13488 -0.900479 -1.14399
231 1 8.58544 17.2493 6.34404 -0.68356 0.0215003 -0.886367
1746 1 9.81539 17.5885 5.22966 -0.976282 -0.457781 -0.711573
236 1 9.12112 19.0958 5.4618 1.53422 0.47135 2.3087
235 2 12.3621 16.7401 6.94602 0.000172927 2.28039 -0.0631901
162 2 13.0736 16.9248 5.07171 1.50747 -0.987859 -2.77173
240 2 13.1105 18.6846 6.11394 1.16659 -0.217996 0.438532
26237 1 18.3715 18.9857 5.14654 0.60314 0.257409 0.701379
26311 1 19.3213 19.4386 6.45675 -1.41752 -0.191774 -1.20449
252 1 20.6931 17.0215 7.34876 10.1199 2.69085 -12.208
251 2 26.793 19.2524 6.03796 2.03645 -1.59089 2.20432
331 2 27.3869 18.533 80.4709 -0.151515 -0.645626 0.485288
255 1 29.1937 16.5758 7.11659 -0.0198454 0.92103 -1.29377
1777 1 30.7878 18.8343 6.5532 -0.0357303 0.0555227 3.56681
1699 1 32.3224 18.1665 6.8789 -2.24705 -2.32459 1.30957
1775 1 32.955 19.7263 7.01155 -3.15733 -2.12125 0.469736
339 1 34.4133 19.3441 6.30249 -0.274774 1.49853 -3.04806
411 1 34.9288 18.3444 5.03052 2.60202 1.55427 1.09829
1857 1 37.0358 17.3441 5.18218 -0.00477064 0.301601 -3.18029
26327 1 35.7616 17.5185 6.21272 3.60125 2.6318 -0.695292
272 2 43.7958 19.201 4.43934 -4.60489 1.50835 -1.45453
268 2 42.1379 19.173 5.66093 -1.32887 1.52539 1.84528
1785 2 43.8745 19.5986 6.74826 1.82419 0.508457 -2.61802
194 2 45.6001 17.9505 4.71857 -4.21363 -1.85242 -2.69063
26263 2 47.6267 17.2355 4.72159 -2.75372 8.2097 -5.60729
356 2 49.384 19.8077 7.1634 -1.26802 3.83311 3.60322
26419 2 49.7415 19.1555 5.31418 3.38909 7.77936 7.55885
1800 2 52.1223 19.16 4.57251 -4.29484 -0.3731 9.49707
1794 2 51.9828 18.6556 6.52911 0.278621 1.91024 -1.74456
26272 2 53.5747 16.8477 7.62319 0.387835 0.783368 -0.00772253
282 2 57.1661 17.6757 6.88868 3.33438 -10.6255 25.2265
357 2 59.1543 18.457 7.01208 -0.00219707 0.502139 3.31804
26357 2 61.0251 18.2161 5.81279 1.24593 -1.36911 1.49318
367 1 66.2256 19.4542 5.26083 -1.96613 3.98068 1.59249
296 1 65.8288 18.3544 6.5706 5.94169 18.6674 -7.85611
291 1 67.7453 19.1078 5.01246 -2.42463 -9.21748 4.65106
1734 1 66.4162 19.6188 7.54974 2.35198 -10.4272 3.61827
26287 2 69.6427 16.8135 4.6477 3.91519 -1.35057 -0.256236
26291 1 73.891 17.0839 6.37083 -2.86834 -0.454293 -1.12517
299 1 73.8269 18.6607 6.96141 1.88816 1.34349 1.31771
26147 2 79.067 16.5139 5.91812 0.488416 0.855908 0.213557
303 2 80.5701 17.1464 7.20321 -0.086026 0.179921 0.413702
1748 2 77.8054 17.899 6.838 0.144763 -0.285364 0.0538501
226 2 79.5075 18.9649 7.37562 -0.0130132 -0.00655247 0.0072776
311 2 8.94578 21.8461 5.57271 0.564174 -0.527495 -0.17206
26232 2 10.8131 21.3272 6.31522 -0.242264 0.273223 2.2339
237 2 12.5877 20.5503 6.9424 -0.290457 1.17416 0.286203
238 2 14.4127 20.3115 6.00242 0.278183 -1.98551 0.238169
26231 1 15.4192 20.5665 4.60437 -0.693514 0.298236 -0.459708
26312 1 16.857 19.7067 4.82584 -0.289551 0.419344 -1.34767
244 1 18.8283 20.5851 5.08736 1.39444 -1.91653 0.174174
1761 1 18.4645 21.7667 6.20965 -0.209536 -1.02863 0.546517
328 2 24.2335 21.8377 7.46902 2.21907 -0.456903 0.60595
26319 2 27.632 21.1419 5.99908 0.800214 -1.24323 2.37656
256 2 25.9134 22.3216 6.3843 1.10847 -0.406847 0.000196621
1847 2 28.7344 19.8143 7.09434 -0.281324 0.748565 -5.80999
26323 2 30.9242 19.8319 5.1514 -1.17012 -2.86615 5.85557
329 2 29.2464 20.9918 4.64621 -0.856095 0.591452 -0.667061
24951 2 29.9456 22.7066 5.53378 0.596614 -0.5397 -0.90855
1778 2 35.9695 20.1039 6.19647 1.32631 2.81113 -0.688258
1849 2 35.2746 22.9898 5.619 -0.611716 -0.484213 0.786652
1702 2 35.7798 21.8594 7.25388 1.46924 -0.534745 -3.25558
343 2 40.0679 21.1636 4.91371 -3.34962 1.96151 2.29886
1781 2 38.7617 20.5287 6.34698 -1.67279 -1.73461 1.50204
1783 2 41.3457 20.9219 6.51051 1.86809 0.292153 -1.28241
26276 1 55.6785 22.0654 4.53555 -0.0207392 -3.09589 1.49643
368 1 64.4407 21.3308 7.36481 -5.50318 -14.4414 -16.3409
365 1 64.3207 21.9996 5.88781 3.16373 -12.198 -7.48147
1809 1 65.6897 21.0005 5.93638 6.13174 14.9329 -3.5266
363 1 66.1201 21.3017 7.46325 13.7663 1.54889 4.04185
26360 1 67.7606 21.605 7.36193 3.86948 1.42437 5.96852
1813 1 67.598 20.2163 6.38949 7.516 -5.12909 -16.4396
362 1 67.1703 21.2824 5.01948 0.747995 -30.0484 15.7856
371 2 69.7195 22.3956 5.02316 -0.958707 8.97258 -0.795163
1817 2 73.5372 19.779 5.59294 -1.1205 1.75718 4.17807
447 2 72.2372 20.9608 4.5195 -0.253375 0.752494 -2.21686
380 2 76.6089 19.5188 7.43407 0.569754 1.16896 1.0582
1818 2 75.5261 20.1957 5.78813 -1.91185 2.00607 -0.572076
1897 1 77.4562 22.2199 6.97945 0.157225 0.520371 1.25473
1821 2 75.2942 22.2855 5.86736 -0.641689 -0.542959 1.86529
1899 2 78.3276 20.6895 7.2646 0.544104 -0.0572408 0.101711
313 2 11.7579 23.127 6.06061 -0.62281 -0.651486 -0.946723
465 2 13.0452 24.748 5.89746 -0.535641 -0.443233 0.424615
391 1 17.9693 22.8541 7.35662 -0.162625 0.356075 0.398235
26399 2 23.9772 23.8779 7.05469 -0.495498 1.32292 0.617795
26393 2 25.0474 24.7296 5.53353 -0.455882 -0.0220072 -0.143109
477 2 23.3824 25.7907 6.66726 1.528 -0.0414627 2.28528
406 2 26.94 23.9952 5.70077 -0.0611557 0.890817 -0.912748
327 2 28.3677 22.964 6.81055 -0.634851 -0.338285 -1.00565
408 2 35.9708 24.6924 6.4942 0.489985 2.11902 2.67529
340 2 37.7049 25.0443 5.42398 -0.096391 2.6705 -1.8579
26407 2 39.7525 23.1698 4.84395 2.41326 -3.01853 -1.12911
338 2 39.0884 24.0225 6.62024 2.31312 1.86075 -3.07844
1786 2 40.486 22.6289 7.19494 2.38598 -3.76474 -1.72935
26411 1 47.0709 25.0656 7.17459 -6.94382 -10.9782 -13.3134
345 1 50.5673 23.9661 6.27331 -6.89087 43.7935 -9.82324
1870 1 47.2964 23.6215 6.66567 0.647688 -1.68145 -21.141
26424 1 47.8109 24.5592 80.4518 -12.1174 -7.94459 16.5758
427 1 48.4325 24.4219 5.72721 -15.6968 16.226 -1.61109
1873 1 52.3885 24.3174 6.10822 24.1967 -22.2126 -23.4989
428 1 49.4522 25.7787 5.05819 -18.5248 -24.5769 -18.4078
431 1 53.9967 24.0668 5.35969 -18.6061 -2.59045 7.05927
26271 1 54.9756 22.8198 5.77265 19.1134 -15.0973 -20.1708
3317 1 51.7987 24.941 7.44789 -14.6769 -0.542688 -16.6788
26423 1 53.922 24.4086 6.91476 0.564806 4.24876 14.4865
511 1 59.612 25.4757 5.24645 -8.88446 -0.659182 1.805
26356 1 61.219 24.5737 6.27494 1.48763 -17.7963 -7.29515
439 1 62.4379 23.3463 6.77128 -15.0276 -0.556281 20.2511
26351 1 63.0885 23.0138 5.14955 -4.60011 -36.1295 -3.65645
26359 1 67.5599 22.6014 5.9378 13.7949 -3.40405 -1.10302
443 1 67.7691 24.0454 7.06583 -1.41233 -10.5091 -10.8964
1814 1 68.9763 23.4174 6.08903 11.6319 3.13218 -2.87156
372 1 70.0508 24.5625 6.64404 4.69878 4.26543 2.42258
26435 1 68.7232 25.4884 7.15987 -4.05002 -3.6483 -2.92135
26444 2 71.6143 22.9158 4.53001 5.41189 2.66608 -2.04959
26521 2 74.3727 24.1108 5.98596 0.862218 0.696381 -1.62614
384 1 76.7977 23.1366 5.7751 0.142448 -1.04687 1.03996
381 1 78.1755 24.0566 5.51243 0.235762 -1.19201 0.0102464
374 1 78.2487 24.4994 7.10877 0.769256 0.501901 -0.522324
1909 1 9.73256 26.1138 6.89032 -0.367132 0.260234 -0.120546
1832 1 8.0493 25.9643 6.86571 -0.285823 0.331094 -0.483538
26456 1 7.85874 27.6217 7.00179 0.449088 0.244766 -0.455497
307 2 11.4658 25.9718 6.40876 0.0589851 0.324813 0.819308
461 2 10.982 26.6277 4.52077 -1.06503 -1.21125 -0.0716336
1768 2 14.5407 26.1062 5.55525 0.887461 0.123215 -0.969891
1837 2 15.5672 27.8393 5.92327 1.49132 1.40873 -0.320426
395 2 17.3403 26.9509 6.42549 0.555563 0.576416 -0.808838
399 2 19.3487 27.3453 6.65761 -0.677779 -1.16751 -2.37466
394 2 17.8098 25.8755 4.73256 -0.274676 -0.94254 1.10558
1921 2 19.2046 27.399 4.56504 0.177208 1.59515 1.3292
26390 2 22.2094 26.0777 5.01537 -3.31485 -7.37149 2.3066
475 2 21.3343 27.4945 6.20682 -0.68478 0.445795 1.02317
26397 2 26.1644 25.7667 6.87223 -0.912873 -0.910015 0.377724
1930 1 30.3538 29.0466 5.36506 -0.372103 -0.0907998 -0.31456
26475 1 29.91 27.5612 4.75269 -0.731112 -0.808057 1.27421
1854 2 36.1188 26.204 4.78982 -1.70309 -0.1939 -4.88025
26406 1 37.9365 27.8888 4.98413 -3.92213 9.4194 2.37735
26563 1 40.1352 28.6109 5.338 -9.07336 -12.2573 10.7168
1868 2 41.005 28.7992 7.11838 2.87539 3.48198 -2.55473
1945 2 43.0239 29.1088 6.38479 -2.70248 1.97611 -2.06854
26336 1 44.0112 26.1672 8.40237 8.25092 -8.25991 -1.668
26495 1 48.8741 26.0576 6.36605 -17.4791 -13.5029 -2.09837
508 2 55.8234 28.8738 5.67821 -28.8288 14.4758 -7.55329
436 2 55.3168 28.7437 79.738 22.2667 18.6389 2.42058
26503 2 53.9196 28.6701 78.2913 32.7998 -22.8695 14.3651
26504 1 59.8595 26.3757 6.68734 11.136 -3.86345 11.9347
1878 1 60.6294 26.3202 4.58995 10.4214 2.54563 -4.09196
1802 1 61.374 26.7012 6.1158 -5.51462 -5.7303 -2.0915
1881 1 62.2401 25.729 7.13089 -4.45951 -8.72508 1.30029
1962 1 67.9088 27.6449 5.71493 12.3903 1.454 1.51052
26583 1 67.0798 28.3749 7.03722 5.08085 -1.98226 -3.49527
597 1 66.8697 28.4552 4.60345 -9.80911 9.05942 14.9159
515 1 69.2317 27.0858 6.70754 -6.12189 -2.28565 -6.01158
514 1 69.8028 28.5736 6.13614 0.33226 3.33247 3.16178
595 1 68.7846 28.8672 4.82532 8.34326 1.21254 -3.1092
1894 2 73.6015 28.2344 6.64875 -0.423183 -0.418836 0.493517
456 2 74.187 26.1135 6.33603 -0.859588 0.446746 -2.69568
449 2 74.9273 26.239 80.6313 -1.09149 0.780821 1.43621
26452 2 5.1878 31.3935 5.06572 -0.040906 0.825572 0.621795
459 2 6.73575 31.3411 6.47476 0.228051 0.608398 0.107141
541 1 10.8623 31.6301 4.90039 0.255647 -0.776 1.76451
538 1 12.511 31.7455 4.94835 0.896801 0.434774 -0.147635
1914 1 15.9782 30.7207 6.10038 0.316896 0.384085 0.0706253
26463 1 17.5966 31.0491 6.39913 -0.554542 -0.0129554 -1.24912
470 2 18.9401 31.0649 5.18708 0.369156 -1.57516 0.205184
549 2 20.6797 28.8389 4.82062 -0.448004 -1.24281 -3.33714
559 2 26.5342 31.3833 5.2762 -0.0653965 2.91379 -0.134447
1929 1 30.5091 29.6383 6.92887 -1.65079 0.613003 0.331871
26479 1 30.0334 31.907 5.26041 -0.766279 0.0977717 1.54439
483 1 30.5971 31.3184 6.78785 4.06772 -1.37744 1.13823
412 1 30.9073 30.5374 4.77159 -1.66808 1.25907 -5.11542
1933 1 32.0383 30.9945 5.9531 0.838406 -0.846869 -1.61326
492 2 33.4944 30.5793 4.76925 4.55499 -1.57195 1.918
1940 2 38.1062 31.6717 5.14713 -4.18311 -11.295 2.28788
26632 1 38.6012 29.0495 5.93798 11.1728 4.06368 1.82893
1934 1 38.9787 30.2894 4.73646 0.740589 2.74937 14.484
416 1 40.5503 30.2579 5.08682 -0.355679 -0.984298 -8.51191
414 1 41.2649 31.4228 80.4385 6.50742 1.43031 -3.45579
424 2 42.6844 30.9477 7.24172 -0.897704 4.13544 -2.38709
26487 2 43.8891 28.7603 8.13647 2.33615 2.49434 -5.11846
498 1 48.727 30.8435 5.5959 -5.48178 -1.42647 23.77
26490 1 48.2721 30.4695 7.24013 6.93701 -2.10165 20.3312
26571 1 52.8667 31.104 6.17669 9.02991 -11.5082 12.5757
1946 2 52.709 31.3131 4.47023 -13.0145 -11.8581 -25.298
26584 2 64.3959 31.4829 5.40809 1.06048 1.1192 2.01786
1958 2 65.6371 30.9633 6.969 -2.54732 -5.02336 0.789816
520 1 66.5476 29.5824 5.95968 12.0206 -5.51781 -6.51734
26515 1 68.0463 30.4862 6.08904 -0.00717759 6.36754 5.10341
26514 1 68.0548 31.4419 4.73667 6.73074 9.8023 4.93102
522 1 68.5554 29.2194 7.1233 -1.97405 5.89088 -5.31698
525 1 70.6499 29.9697 5.77695 -4.92009 -0.00446113 -1.54767
518 1 69.3441 30.4399 4.80164 6.80359 5.45793 7.19059
26591 2 70.9168 31.7582 5.75591 1.07331 -0.909607 -0.923862
601 2 72.1598 29.6142 6.27483 0.0963032 2.88578 0.693425
1965 2 73.558 30.6188 5.13279 0.206149 0.190349 0.249368
526 2 74.7125 28.9113 5.05236 3.14624 2.26689 0.00483948
26527 2 6.67255 33.3606 6.00935 -0.785522 0.299282 -0.094488
2049 2 4.61801 33.0873 6.17736 -0.78434 -0.2558 0.234062
2046 2 4.44352 34.8383 7.34367 1.12658 -0.555924 0.227679
534 2 8.73651 33.3665 5.9877 -0.599241 -0.279665 -0.219639
26532 1 10.7124 33.1202 5.60967 0.148305 0.105921 0.398218
26531 1 12.2975 32.8763 6.15684 0.535638 3.03793 -1.32727
539 1 13.4702 33.7326 5.33633 -2.56815 -1.01344 -0.292513
466 1 15.1105 32.0929 6.60097 -0.518117 0.0274515 0.987464
468 1 16.3323 33.2571 6.33277 -0.045479 1.61478 0.127214
9668 1 13.9706 33.335 6.90039 -1.31511 0.268912 1.53313
543 1 15.2445 34.4797 6.79438 0.888846 0.892343 1.18168
544 1 14.7924 34.7618 5.18551 2.81143 -0.890879 0.321119
542 1 17.2148 34.5672 5.71995 -1.115 1.79546 -1.26831
471 2 20.622 31.876 6.03867 1.13175 0.657368 -0.160394
26543 2 22.0143 33.4134 5.86281 0.444723 0.0194654 0.65272
556 2 24.7013 33.0812 7.05256 2.20482 -1.10402 1.28435
554 2 23.7806 32.5038 5.2274 0.137466 -1.66628 0.571901
484 2 26.9854 32.7645 6.72332 -0.226673 1.40562 1.56743
1922 2 25.9672 34.5073 6.25685 0.429279 1.47024 1.48571
1926 1 28.8007 32.9207 7.28291 0.59234 -1.80703 -3.68968
26480 1 29.4795 33.4452 5.82515 2.97809 -1.10725 -2.53155
26631 1 28.7416 34.1991 4.51166 -0.151566 0.850982 -1.16665
2233 1 30.6673 34.6731 5.93172 3.70696 6.46098 -5.99544
486 2 34.6395 32.0521 5.72061 -6.05827 5.67797 -0.149836
2006 2 35.3032 33.8294 6.57332 8.93764 -4.21865 2.71413
26559 2 37.1243 33.2671 5.77371 -3.50919 13.8269 -4.60677
26557 2 35.0256 34.7701 4.74224 -2.30694 -2.1066 -2.12749
1939 2 41.7603 34.0335 6.0504 -1.28091 -6.31527 -4.59949
570 2 46.8701 34.4954 7.41872 13.0883 0.36431 4.17933
26645 1 47.0647 34.8988 5.82715 -21.2429 12.8696 -17.3634
26569 1 46.9248 33.3518 4.95426 -3.50715 -12.3976 -9.61144
573 1 47.9133 32.3141 5.78668 12.0324 9.90366 8.9216
26568 1 48.9286 33.7066 5.91204 -17.2371 -10.7345 7.31124
499 1 49.985 33.0743 6.93545 7.4355 -21.695 3.99585
26491 1 48.7418 32.0127 7.39826 -4.28447 19.2744 20.6001
2022 1 52.8902 33.232 6.59725 11.6567 6.35325 -17.7439
26567 1 51.2875 33.8957 6.37099 -3.2317 0.64807 3.67825
2094 1 50.2252 34.5411 5.13572 2.35739 18.8301 -22.8382
578 1 54.1189 32.2407 6.18918 -15.3199 5.31422 -13.3272
655 1 53.4939 34.1499 5.28999 -8.48687 16.0574 -12.8337
660 1 54.8784 33.0699 4.7926 -4.01787 2.55564 -1.75701
2025 1 53.8097 34.288 7.58991 11.2689 24.3578 7.36841
26580 1 55.9104 33.5832 5.98333 4.83443 -5.4986 -2.94331
581 1 57.6037 33.1365 7.56619 -5.02051 -10.4928 2.34554
2037 2 59.6753 32.8708 5.16775 -6.35418 -1.33227 -2.20761
592 2 61.7234 32.605 5.46333 -5.46878 -3.3352 2.64105
1964 2 60.0563 33.2273 7.16273 2.80416 2.8853 -1.80934
1957 2 63.0649 32.0032 6.87969 -0.0906719 1.37937 1.38991
600 2 70.4563 33.8011 5.70124 -0.121477 0.170967 -0.301634
603 2 73.3208 33.2592 7.0265 0.318452 0.569687 -0.140934
599 2 71.8014 34.67 7.02236 -0.214734 0.294543 0.624447
524 2 72.4434 32.2 4.4287 1.30651 -1.16911 -0.64586
1971 2 74.7395 32.134 5.9656 1.08596 -0.854584 -0.386473
26519 2 76.3397 32.8821 6.97001 0.362384 0.0407718 -0.266724
2045 2 76.303 33.1069 4.5318 0.625476 0.0210012 -0.534253
1977 1 80.5108 33.9856 4.48692 -0.246666 1.27516 0.950569
535 2 8.58522 34.9629 7.29767 -2.64578 0.255525 -1.10923
2057 2 11.8987 37.8033 7.24129 0.269054 -0.401084 -1.57951
620 2 14.5532 37.5433 6.33373 1.69167 -1.22314 -1.23417
1990 1 16.1637 35.6982 5.05337 0.182638 0.231441 1.54573
619 1 15.8476 36.3953 6.53538 0.790221 -0.779567 0.110808
26612 2 14.2769 37.9287 80.6179 1.5342 1.28729 -1.35932
2062 1 16.9009 35.3207 7.20134 0.373004 1.18344 2.1257
631 2 23.8476 36.9187 6.44461 0.380314 0.78949 0.05759
26547 2 23.085 35.1562 5.5896 3.6622 -1.42838 2.39556
552 2 25.0584 35.7117 7.63216 2.45218 -0.807816 3.48894
26627 1 29.5464 35.8036 6.31068 0.852266 4.78013 -3.67562
2005 1 28.949 35.8731 4.76644 0.0780342 0.563094 4.34178
639 2 35.9346 35.8896 7.00822 -4.93963 3.66191 5.01066
25191 2 36.9089 35.3408 5.29813 -6.05088 4.74875 -7.46247
2013 2 39.1991 35.2487 7.36412 1.16765 2.71625 -4.86088
566 2 38.8865 35.9883 5.52065 0.264023 -4.6538 -1.93966
642 2 40.3436 37.2841 5.29811 -0.605904 4.57493 0.000949921
571 2 42.976 34.8688 7.63384 -9.4068 -3.19676 2.93284
26639 2 45.6016 37.8253 5.55307 4.26183 -1.54002 -0.608755
2098 1 52.744 35.6511 5.54298 5.90463 27.4756 11.9471
651 1 52.5932 35.1474 7.02573 -12.249 -2.91678 -4.95392
2101 1 55.0048 35.8293 4.54259 7.43663 -10.2404 -17.2239
653 1 53.9711 36.7579 5.42568 12.7451 -14.3127 -7.02573
656 1 53.6432 36.6374 7.01473 14.3351 -11.5308 15.3201
583 1 56.0323 35.3377 5.82835 5.91181 4.19842 9.4523
588 1 56.9123 34.5063 6.981 2.43957 -11.5474 1.89656
674 2 70.2156 35.8408 5.29698 -0.430861 0.409801 -0.0861619
598 2 70.6195 36.3779 7.25868 0.472987 0.233837 -0.735601
675 2 70.7413 37.8279 5.02075 -1.67667 -0.346313 -0.600515
678 2 74.5428 34.8673 6.5823 -0.109616 0.978583 -0.859325
604 2 72.9306 35.076 5.31738 -0.0984873 -0.0470144 0.428749
2115 2 71.8851 37.9568 6.74025 -0.330531 0.935077 1.38701
684 2 76.7842 34.8947 6.83572 -0.608248 0.251131 -0.77861
26671 2 75.8556 35.0696 5.03668 0.415228 -0.0528476 -0.467436
26603 1 78.2662 37.7828 6.73739 -0.338228 1.70962 0.500923
26604 1 78.8726 36.4725 5.89372 -1.24219 1.04578 -0.312741
681 1 79.3683 35.1437 4.97303 -1.05891 -0.722978 -0.0871843
609 1 79.0115 37.4261 4.52099 -1.27556 1.71021 -0.751918
26676 2 78.6948 35.3785 7.38011 0.82579 -6.14781 -1.84126
758 2 6.46318 40.767 5.228 -0.413314 0.380802 -0.187511
692 2 6.85775 38.7226 4.40603 -0.12965 0.622298 -0.0520393
26679 2 7.3778 39.2854 6.27029 -0.293536 1.55509 0.00884114
26608 2 9.28997 38.6818 5.77762 -0.0821872 -0.304098 -0.102463
613 2 11.1498 38.0991 5.13058 -0.859438 0.189516 -0.376463
615 2 11.8496 39.6064 6.30602 -0.602304 -0.320004 -0.775788
618 2 13.7502 39.4946 5.54017 -1.03938 0.631933 -0.664667
700 2 15.4288 40.6163 5.8817 -0.741729 1.14141 -0.890511
623 2 18.3895 40.1899 4.77184 1.96177 -1.07172 2.17834
26695 2 20.274 39.4338 4.48666 -0.202316 1.49698 0.603769
2069 2 21.7199 37.9696 4.51093 -0.711689 0.75494 -2.25893
634 2 32.8451 39.057 5.50839 5.47103 1.94683 1.09584
640 2 33.8935 38.1885 7.01435 0.300079 -1.6933 -3.03112
3526 1 36.7539 40.064 7.46674 2.80114 1.14872 2.32572
2090 2 41.4279 39.7016 6.09701 -2.68911 -8.64739 -3.34549
648 2 42.7571 40.7467 4.88927 -3.37749 -4.34497 0.594123
646 2 43.9099 37.7292 4.42892 -14.7279 -1.0412 -0.772287
649 2 48.2055 38.737 79.0443 9.11 2.95254 -5.46454
652 2 44.3401 39.5936 5.01334 -5.46727 -4.52774 1.55301
650 2 47.5439 37.8802 6.60757 9.32413 0.423629 5.29674
727 2 48.3024 38.7409 4.71181 -2.37749 -0.545747 -14.6765
725 2 48.2588 41.483 4.99087 -7.37631 -7.19652 0.64998
2174 2 51.0586 41.7505 4.7679 1.82015 -3.8293 -17.8275
26735 1 61.1864 38.4677 4.60216 3.59056 -2.04346 0.323689
667 1 62.2878 38.0628 5.78548 -1.48809 0.638667 1.9316
668 1 61.641 40.9483 5.31142 1.25819 -0.944436 -1.22317
671 1 63.7372 37.8905 4.94782 -2.05019 -1.03952 -0.156981
673 1 63.1582 37.7973 7.21738 -0.127845 -0.417426 2.7068
596 1 64.5341 38.3237 6.339 -1.2833 -1.80673 0.913791
676 1 64.62 39.9282 5.44854 0.457944 -1.79352 0.63676
744 1 63.2715 40.8666 5.74299 0.216333 -2.03007 -0.312419
2185 1 65.9418 38.9989 5.78644 -0.0637742 -1.55768 0.64436
3561 2 67.7321 39.3944 5.53343 -0.185884 -0.845614 -0.708183
26668 2 69.9409 39.7301 5.14401 0.190326 -0.563947 0.128397
2197 2 71.7259 39.9568 6.16894 -0.460504 0.407411 -0.932589
755 1 75.6839 40.9024 5.57132 0.612872 2.65575 -2.49575
685 1 76.9247 39.8013 6.03924 -0.873807 0.693275 0.304639
26680 1 77.4202 39.8484 4.4602 0.934301 -0.706245 -3.12109
26751 1 78.1217 38.6148 5.29538 -0.392449 1.79018 -2.02949
687 2 5.45268 42.4293 5.96068 1.38736 1.62032 0.249199
695 2 16.3762 42.9919 4.43177 1.15701 -0.926335 1.50454
26687 2 14.6111 41.8824 4.47761 -0.739933 -0.313415 -0.58715
2134 2 14.5732 41.6364 7.45455 -0.192249 0.735976 1.26155
624 2 17.2364 41.6193 5.75207 0.20156 -0.388191 -0.917657
2218 2 18.1489 42.77 7.23514 -0.163366 -0.896704 -1.09751
699 2 19.8019 42.5954 6.04041 1.30886 -2.0883 -0.748689
707 2 29.3553 41.1518 5.28397 4.95555 -0.538295 0.295767
711 2 30.6133 40.8435 6.86121 -2.1063 2.88231 6.49473
26709 2 32.7718 42.3199 5.31261 -8.13895 -2.00321 -5.4072
719 1 37.0695 41.6672 7.01751 3.04662 3.63599 -7.17505
795 1 36.5699 42.6571 5.75562 -0.804922 -0.951282 0.505395
26784 1 35.9142 43.1272 7.22357 -8.72679 1.50665 -10.5506
724 2 42.6216 43.5877 7.78448 2.56421 -4.27848 -6.80939
2166 2 44.3837 43.6643 6.59978 9.71375 -2.95977 1.70586
808 2 45.4815 41.2774 4.81981 -7.97737 -1.0707 -5.7917
805 2 46.7132 42.7867 5.46554 6.47143 2.14151 -2.43212
2245 2 46.2654 44.3797 6.80629 7.99481 11.0506 5.23238
731 2 52.2551 43.5321 4.569 11.2799 0.334397 9.14347
733 2 53.8855 42.2693 5.15172 -0.685895 5.173 2.58819
739 2 55.1667 42.423 6.65778 6.52823 -6.50912 3.61661