ITEM: TIMESTEP
140000
ITEM: NUMBER OF ATOMS
27436
ITEM: BOX BOUNDS pp pp pp
4.3216808773194018e+00 8.0678319122680477e+01
4.3216808773194018e+00 8.0678319122680477e+01
4.3216808773194018e+00 8.0678319122680477e+01
ITEM: ATOMS id type x y z vx vy vz
25996 2 5.93912 4.54548 5.04672 2.03099 0.333939 -0.115645
1521 1 6.745 6.85426 6.34601 1.07891 0.456348 -0.607759
4 1 5.37882 5.97839 5.89253 1.46162 -0.740118 2.69193
2818 2 10.124 80.6592 5.86906 0.743345 3.28128 -0.146657
12 2 12.7672 4.45768 6.79044 -1.93205 0.223736 -1.08233
1454 2 15.5474 6.53583 6.23952 0.0391337 0.235639 2.03872
11 2 14.7183 4.6538 6.08161 -0.960061 1.20872 -1.62963
1458 2 17.5518 4.73249 5.83469 0.0436153 -0.17992 -0.613806
19 2 19.5212 4.88496 5.29913 0.139312 -0.992353 0.074751
1530 2 17.4099 6.38182 7.09545 -0.0941917 -1.2501 1.45889
91 2 19.4543 6.61651 7.42921 0.299608 0.718437 1.60393
1465 2 19.8332 4.5757 7.31136 0.728292 0.657485 0.698627
171 2 19.8726 6.899 5.40947 -0.22159 -1.46235 0.807227
2840 1 25.9848 5.92592 5.2791 -0.564028 -0.429228 0.999888
1537 1 27.5053 6.98791 5.44157 0.0692443 -1.08287 -0.362861
2836 1 27.5317 5.32753 5.53907 -1.95104 -1.24983 0.175446
27 2 32.8695 80.3302 5.02148 0.33354 1.2514 1.35106
29 2 33.8038 5.74147 4.60323 -0.874973 0.340333 -0.653596
31 2 34.1596 5.89203 6.63782 0.147527 1.07023 0.162719
1481 1 38.3746 5.89941 6.37942 0.285672 0.48661 -1.35502
26107 1 39.4204 6.84464 5.47246 1.24415 0.576795 -0.169943
26028 1 38.8242 5.579 4.63629 1.34447 -0.287695 -0.260816
1408 1 37.9119 7.20372 7.3137 1.06706 -2.8519 0.331097
1482 1 42.1201 5.80656 4.5446 0.430456 -0.763891 1.2534
115 1 43.8339 5.14618 4.53592 0.0209178 -1.57052 -1.06582
44 1 42.5565 4.33099 5.16052 0.459132 0.310873 1.32111
1412 2 44.8229 5.22845 6.13461 0.256865 0.385204 0.664649
1410 2 46.7844 4.65071 5.73647 -0.0160674 -0.462554 0.117447
26036 2 48.5483 4.64339 4.67859 0.152063 0.563545 0.0404366
27406 2 50.6171 4.52586 4.68554 -0.364911 0.00715356 0.257524
2862 2 52.6547 4.74375 4.87377 -0.240335 0.0944888 -0.391144
1419 1 52.3326 4.54041 6.50698 0.700712 0.368914 0.179966
1420 1 55.0982 4.99954 7.14448 -0.147483 -0.463752 0.359401
26044 1 54.1696 6.41187 7.35611 -0.54036 -0.59711 -1.29859
27416 1 56.4242 5.93117 6.64516 -0.311283 -0.641822 0.715753
53 1 57.9665 6.91355 6.31062 -0.139801 -1.3023 -0.760709
26047 1 57.9376 5.47033 7.16543 -0.228888 0.0661596 1.5312
55 2 59.1272 4.67997 5.951 -0.396846 0.0462456 0.484605
1422 2 61.4005 4.80031 5.97861 -1.43679 0.45602 0.134468
1425 2 63.3054 4.82148 4.68765 -0.703013 0.415961 0.00967183
60 2 62.6456 5.96768 7.16557 1.11226 0.452154 0.347236
27420 1 67.7905 5.77559 5.70771 0.255509 0.262495 0.0638897
133 1 66.3615 4.99259 5.19585 0.453267 -0.777203 -0.717227
1430 1 66.2558 4.86152 6.88561 0.211727 1.85381 0.370916
1436 1 68.7584 6.60954 6.79116 0.522249 -0.31206 -0.585804
1513 2 72.8873 6.45324 5.09203 -0.817818 0.761009 1.17599
67 2 73.6371 5.09672 6.47061 0.141262 -0.178574 -0.160323
71 2 74.6963 7.2489 7.45525 0.0647675 -1.39254 -1.38842
76 1 80.2498 5.27042 5.59283 -0.208448 0.169142 -0.112673
1448 1 77.7934 4.7491 5.19419 -0.150894 -0.687542 0.209538
26068 1 79.6115 6.32314 4.45544 -0.442144 -0.809239 0.660212
79 1 6.7498 9.06236 5.77505 -3.50398 -3.25255 -2.08219
1522 1 6.74572 8.23344 7.28492 1.53552 -1.87191 1.53364
26071 1 7.81208 7.79702 5.44586 0.297332 0.0230832 1.83489
26075 1 8.96918 8.80292 4.75686 -4.68598 -1.66881 -2.55038
2969 1 9.67814 9.10859 6.7774 -0.762103 1.36242 -3.6507
1525 1 8.75399 10.137 5.80671 1.95352 -0.123623 -1.95879
227 1 7.4236 10.1722 6.86646 -0.472249 -0.409942 0.910565
1529 1 10.4878 9.51997 4.43763 2.0157 -2.50802 1.31035
87 1 12.7311 9.29879 5.34962 1.02198 3.26223 -2.79666
1527 1 11.1673 9.33457 6.00738 3.72663 -2.13086 2.76972
1533 2 15.3474 8.77697 5.78187 -0.100534 0.381561 -0.382622
1457 1 14.2401 9.37 4.53076 0.525543 0.461649 4.37389
26008 2 16.8197 7.59404 5.02419 -1.0042 -0.109296 1.05905
96 2 18.6827 8.52047 4.89263 0.127149 1.18197 -0.0164321
1468 2 20.3301 9.65852 4.6022 0.877567 0.541532 0.188891
99 1 26.0849 7.5335 4.74717 -0.579017 0.114129 0.612489
22 1 24.851 9.55994 5.20612 -0.688679 -0.641271 0.806184
26091 1 25.9226 8.59499 6.05845 1.00531 0.159697 0.0352671
1538 1 26.9956 7.63789 6.89768 0.246805 0.739843 -1.72197
32 2 34.0192 7.90922 6.26979 0.124361 -0.970425 0.180492
1629 2 33.4309 10.1966 4.54241 -0.632113 0.775082 -0.048998
1474 2 34.58 9.78412 7.3375 -0.439709 -0.699598 -1.04445
30 2 34.497 7.62816 80.6379 -0.391934 -0.851739 -0.266791
26104 2 35.3192 9.55618 80.5073 -0.447355 -0.191966 0.563352
107 2 35.9131 8.41407 6.72594 0.157803 0.183472 0.856174
36 1 37.4289 8.81443 7.42528 0.325217 -0.0961664 -0.625434
26114 2 50.6876 9.96357 6.26886 -0.98294 0.191765 1.04227
26195 2 53.8414 8.22292 7.10575 -1.11729 -0.177174 -0.198087
126 2 55.4416 9.16824 6.16515 0.41345 -0.538487 -0.273714
26048 1 58.973 7.83927 7.28818 1.05865 -0.0848337 0.0454251
26045 1 56.9989 8.29013 6.3139 0.151943 1.49582 -0.0442926
1502 2 62.4323 7.66222 5.98824 0.211214 0.419319 -0.146524
140 2 62.7795 9.61746 5.35959 -0.773637 0.0676773 -0.95817
64 2 62.9283 10.3809 7.30689 0.00704378 -0.598871 -1.44688
68 1 68.5305 7.42347 5.34932 0.189121 0.274871 -0.503479
26060 1 69.2145 8.73262 6.1253 -0.300003 1.75773 0.471795
26131 1 68.941 9.00203 4.50817 1.64219 0.421033 0.4491
65 2 73.625 8.35241 6.07896 -1.35241 2.25843 -0.766983
147 2 75.3618 9.80924 5.89199 -0.669577 -0.272509 0.413666
70 2 76.5937 9.55404 80.6574 -0.516124 0.0604714 -0.640554
150 2 78.0896 9.65705 7.00684 -0.815546 1.03463 -2.4764
74 2 79.144 7.90369 6.82682 0.226098 0.514135 -0.429113
1666 2 78.4209 10.1196 5.05443 1.3626 0.363618 -0.437625
77 2 79.0059 8.16131 4.80855 -0.425177 1.97117 -0.585087
8 1 9.99213 10.986 5.04515 -3.17507 -1.27954 -0.334258
83 1 9.97196 12.4139 5.89799 0.873869 0.361748 3.57438
1456 1 11.1475 11.0107 6.30024 1.61308 -3.35069 -7.23629
1526 1 12.8006 10.9156 5.86416 -5.67526 1.7197 -11.1731
1605 2 13.1052 12.7639 6.24504 -5.42145 -1.6406 2.49953
1620 2 19.1794 10.3505 6.12849 1.12007 0.373047 0.590137
97 1 23.6017 10.8173 4.80301 -0.593964 0.466446 2.15959
24 1 22.7596 12.1931 5.32582 -0.352216 -2.08246 2.30909
95 1 24.6156 10.9129 6.10149 0.643953 0.0882398 0.3034
26167 1 23.8486 12.3219 6.61255 0.559309 -0.567771 -0.440135
26096 1 24.6547 13.5935 5.82037 -0.422485 -0.598274 0.925306
175 1 22.7919 13.4306 7.3254 0.423806 -1.20042 1.57951
1625 2 32.0397 10.6734 6.00263 -0.191647 0.646079 0.600381
112 2 31.2296 11.7822 4.47544 -0.416015 1.54875 -0.375576
185 2 35.2462 10.8792 5.72223 -0.162468 -0.107495 -0.405469
259 2 35.2279 12.4976 6.95372 1.10368 0.701465 -2.75095
26180 1 36.4238 13.0606 5.64134 0.638707 -0.512213 0.898021
1631 1 37.8637 12.3122 6.1287 1.60883 0.487548 0.997732
26108 1 38.8397 10.4462 5.12641 -0.101327 2.10018 4.64823
187 1 38.7962 10.9972 6.70897 0.0503383 -0.426687 -2.12862
189 1 37.9585 11.707 4.5247 0.627009 0.637696 -0.560274
116 2 43.809 11.8191 5.67575 -0.455364 0.91751 -0.251197
195 1 46.5036 12.5257 4.67433 -0.718417 -0.602587 1.71714
267 1 46.7413 13.1459 6.19827 -0.403664 0.418464 0.0261233
1562 1 45.6296 11.1898 5.19901 -1.09673 -0.540357 -0.821169
26188 1 45.947 11.7772 6.74842 -1.52823 -0.118343 2.10449
197 2 51.6765 11.5438 7.09889 0.378767 -0.46358 -0.857173
26191 2 52.6668 12.083 5.36581 0.195757 0.333934 -0.845091
26120 2 54.1 10.6437 5.7227 0.307684 -0.038527 0.477847
26199 1 58.3172 13.2213 5.8813 -0.29273 -1.21185 -2.64385
208 1 59.2552 12.1285 5.0411 0.904082 -2.38424 -0.726763
1654 1 60.3815 12.1044 6.25849 0.510711 0.541026 0.470848
1657 1 59.4931 13.2673 7.15423 0.345558 -0.873823 -1.66259
136 2 61.3296 11.0413 5.01532 0.718692 0.293012 0.73181
135 1 61.6346 11.6361 7.25512 0.0997528 1.42772 -0.671188
26212 2 66.8526 11.8384 5.72063 1.1054 -0.4992 0.692259
142 2 68.1748 11.9943 7.31677 1.05366 0.001973 0.361713
1590 1 73.6406 13.4062 4.6097 -0.456671 0.387559 -0.833785
152 2 78.9523 13.1587 5.32364 -0.30221 -0.511123 0.072243
228 2 4.69459 14.82 6.43684 0.265556 -0.360353 0.949605
26147 2 5.96756 16.1476 5.48523 1.36225 0.24399 0.0742501
155 2 4.41695 13.8029 4.64633 0.0981737 -0.0945768 0.851696
160 1 9.36716 14.9595 6.39133 1.46712 1.3746 -1.23786
163 1 10.6556 13.914 6.18571 1.35287 -2.53328 -2.69337
162 2 12.0798 14.3956 5.2182 1.74313 -8.5677 -0.361324
1602 1 10.739 15.4698 7.20913 1.39652 1.85063 -1.66112
88 2 13.6763 14.7382 6.39152 1.50323 5.20697 -0.918987
1611 2 15.3044 14.6037 5.12699 -0.304913 0.776105 -0.267277
243 2 16.4154 15.0058 6.79747 -0.742762 0.867289 -0.146349
248 2 19.3502 14.6332 7.5056 -0.0979102 -0.987783 1.49906
26235 2 18.0674 16.2107 7.13444 -0.609458 0.634325 0.608683
1613 1 22.0764 13.6844 5.78427 -0.646266 -0.438157 -1.80354
26239 1 21.701 15.2489 6.33837 0.166239 -0.871955 -1.18401
26168 1 22.1391 15.649 4.76353 2.60231 -0.251436 0.0886744
174 1 20.5394 15.3367 4.45801 1.6035 0.124315 -1.33743
26163 1 23.4309 14.3013 4.95534 0.618159 -0.413192 1.2635
26171 1 25.206 14.7353 4.79382 -0.28514 -0.613731 1.1066
181 1 25.8814 14.8766 6.26703 -0.277111 -0.664329 -2.87943
1697 1 26.3961 13.3511 6.68012 0.247659 -0.994278 0.0914097
179 1 27.8765 13.9333 6.15892 0.294181 -0.655692 1.93944
184 2 31.1286 13.269 6.17141 -0.367703 -0.167348 -0.992331
183 1 28.781 15.2853 6.49402 2.88686 0.793302 1.80468
3219 1 30.5247 15.4622 6.97127 -0.737395 -0.832295 -2.53165
255 1 29.425 16.67 7.14468 1.50095 6.01034 -1.04902
1701 1 31.893 14.4822 7.14821 3.86471 -1.24791 1.20977
1630 1 36.8647 14.6672 5.92727 1.08317 0.975286 3.10785
335 1 36.5567 15.9777 7.1961 2.18865 0.0456925 3.3577
264 1 37.9141 15.9414 6.17545 3.28348 -2.18385 1.12317
1636 1 38.4279 13.4074 7.31067 -1.08343 -3.87282 -0.469049
1706 1 38.9479 15.0023 7.12658 -4.24867 1.08603 0.29164
1557 2 42.9426 13.6347 6.10855 -1.20944 -0.78158 -1.12989
192 2 43.7058 15.126 4.91989 0.186877 -0.116534 0.362971
196 2 49.4817 16.35 5.43859 0.428092 -0.106693 0.239267
121 2 51.7974 13.9243 5.75198 -0.10074 -0.0379609 0.441138
275 2 51.2947 15.849 6.30697 0.516024 -0.181882 0.512277
1721 1 57.4581 13.5002 4.41304 -1.40686 -0.0727618 0.368929
1651 1 57.2861 14.1074 6.89795 4.139 1.92803 -2.2362
203 1 56.7833 14.9532 4.90429 -3.56489 0.316883 2.22534
207 1 57.5644 15.6021 6.16898 1.4111 2.13504 -1.77039
26200 1 59.0388 15.8189 6.99422 3.59265 -0.124061 0.840689
212 2 63.1881 14.0457 4.67186 0.351726 -0.0632113 0.603111
1733 2 64.3613 15.7097 4.76915 -1.13739 -0.0941748 -0.43159
1661 2 66.1626 15.3562 5.6987 -0.782272 -0.76965 -2.34674
1737 2 68.165 15.6128 6.15658 -1.14644 -1.10805 1.0745
26132 2 66.3137 13.6803 4.50774 -0.245835 1.31129 1.60357
295 2 69.0235 13.7568 5.72679 -2.41517 -1.21541 2.51193
218 2 70.5119 14.9662 4.80889 3.08367 -1.71964 -1.15965
224 2 71.0732 16.0112 6.50789 -3.23718 0.288201 4.3321
373 1 73.5309 15.9647 4.99253 0.198626 3.40259 2.54309
1741 1 74.7594 15.4336 6.88708 -1.14701 1.76539 1.00748
300 1 74.4822 14.6184 5.42632 0.259804 -0.0617939 -0.275855
305 2 78.984 14.9503 6.28022 0.00428248 4.13686 -0.870953
1819 2 78.4952 16.1968 4.7435 -0.937475 -2.26629 0.694101
158 1 7.17533 17.5613 4.7185 -1.41319 -4.3064 -0.23744
226 2 5.2083 17.4398 6.89414 -0.0842844 0.898873 0.809676
1674 1 7.58294 19.0435 5.51048 -1.45252 2.11305 -0.33844
26152 1 8.80652 16.5576 6.39903 -0.533931 0.109042 0.320685
1681 1 10.4226 17.0306 6.62963 1.47556 1.72928 1.24829
231 1 8.83609 17.2084 4.83013 -0.398157 -0.0407483 1.3121
1753 1 8.38235 18.1775 6.73756 1.01528 -2.83971 4.78437
1746 1 9.75669 18.2995 5.75833 -2.08978 -4.91598 -0.433802
236 1 9.03555 19.4309 4.71789 0.310252 -0.122736 0.80983
235 2 12.0811 17.728 7.07193 -2.35073 1.44421 0.100682
240 2 13.1579 19.4376 7.001 -0.882128 0.900456 0.0336916
26312 1 17.5785 18.445 5.01164 -9.20885 -43.0375 24.5402
26237 1 18.5522 17.36 5.30823 16.7108 -22.1078 5.19364
244 1 18.0778 19.5043 6.274 -0.0929198 -4.96712 1.62652
26311 1 19.4054 18.4778 6.27866 0.61007 -0.696524 -0.65435
252 1 21.0985 16.6439 7.11427 0.988046 0.570176 0.671004
397 1 20.9488 17.8783 5.99822 1.05723 -0.667773 1.29337
400 1 21.5802 18.8952 7.17984 2.03935 -0.531401 -0.691856
251 2 26.8176 19.0624 6.43319 -0.244529 0.425421 -1.17749
331 2 27.2874 18.2914 4.57602 0.35289 -0.165507 0.339978
1777 1 30.9349 18.9498 6.56041 3.87618 -12.0077 5.29187
1699 1 32.4017 18.2211 7.01695 -3.87125 -0.200649 2.16348
339 1 34.5077 19.1151 6.26198 -1.27181 -2.3797 1.2705
3142 1 31.6174 16.7251 7.00522 2.92693 -0.711157 -7.03518
1779 1 34.9217 18.0705 7.48717 0.492976 -1.78035 1.82901
411 1 35.0845 18.0824 5.07336 2.23442 -0.266732 -0.246039
1857 1 37.0131 16.8931 5.1398 1.54088 -0.323912 1.10374
26327 1 35.869 17.2314 6.33092 1.6473 -0.612036 2.99559
341 2 42.5043 17.0179 4.59808 -0.974868 0.13609 0.369041
268 2 43.0016 18.5698 5.88858 0.479956 -0.309923 0.38629
194 2 45.6807 17.6011 4.46814 -0.615419 -0.68065 -0.188791
1785 2 44.7261 18.7982 7.03751 -0.280472 1.66157 0.0635945
1638 2 49.3674 18.0992 6.56011 0.286115 -0.691176 0.366178
26263 2 47.6042 16.9138 4.8374 0.697996 -0.359825 -0.362101
1718 2 51.3419 17.7723 7.04438 -0.109478 -0.45839 -0.031869
26272 2 55.4425 17.5181 5.6254 2.20319 -1.92754 -2.62355
1800 2 54.82 19.4381 5.16602 -0.687939 1.60295 0.715877
357 2 58.4075 19.2711 6.48126 -6.37876 1.65402 -2.3048
282 2 57.4019 17.4727 6.35606 -5.11181 1.83185 0.85553
26357 2 60.059 18.91 5.32713 -0.494423 -0.907836 3.98835
367 1 65.9471 19.371 5.31394 -1.22927 2.4203 2.47593
296 1 66.2067 18.1021 6.37038 -1.65642 0.538838 0.831179
291 1 67.5947 19.3542 4.92009 -1.02497 1.286 -0.956374
1734 1 66.3958 19.5564 7.12519 -0.560978 2.01616 4.14421
26287 2 69.4934 16.7277 4.99757 1.62679 1.55631 0.973825
369 2 70.2245 19.3283 5.31881 -1.23816 0.066068 -0.715775
26291 1 73.5545 16.5519 6.57139 3.05334 3.19873 0.236473
297 1 72.2729 17.5516 6.2125 7.70968 5.16593 -1.82312
26363 1 72.3246 17.0865 4.62568 -2.41964 -1.19051 -0.689121
303 2 79.6268 17.1651 6.16488 1.15407 1.22108 -0.800709
387 2 7.11286 21.8143 7.23721 0.507891 1.18587 -0.772304
311 2 8.05423 21.7346 5.40039 1.83908 1.22666 1.05008
26232 2 10.0719 21.8769 5.90635 1.69729 -1.30921 -1.14254
237 2 11.706 20.9089 6.61302 2.02872 -0.979198 -0.192411
313 2 13.271 22.2703 6.5235 -2.05226 0.647145 -3.44778
238 2 14.5837 20.6825 6.29016 -0.898737 0.466634 -1.96922
26231 1 15.6913 21.4482 5.25717 -1.62488 -1.9741 3.04302
391 1 16.6364 21.9297 6.56894 0.480285 1.69464 -2.73932
1761 1 17.7658 21.0076 5.66557 -4.26539 -9.26785 -3.19393
319 1 18.7487 20.7224 7.20907 1.69217 1.8439 -3.9941
1769 1 20.0973 19.7121 7.18265 0.534878 -0.506572 -1.55697
256 2 25.8521 21.8098 6.31563 3.3245 -2.1995 0.125551
26319 2 27.6856 20.8605 5.95825 3.27057 -6.37478 9.79008
1847 2 28.8405 19.7613 7.22914 -0.9099 4.25749 -7.10908
26323 2 31.1532 19.7017 4.99814 -6.1807 -2.06074 1.82937
24951 2 29.9166 22.5249 5.04385 1.78999 -0.49936 2.18778
329 2 29.3229 20.5813 4.70628 -1.01281 -2.17712 -1.10749
1775 1 33.2794 19.6694 7.28877 -2.49767 0.978417 0.161192
1778 2 36.1518 19.9555 6.15887 0.208456 -0.255718 0.901243
1702 2 36.2194 21.7869 7.09639 -0.0562037 -2.12234 0.847364
1784 2 38.0568 19.6976 6.81468 0.706221 -0.164706 -0.0258482
343 2 40.1427 20.558 4.7881 0.577069 -0.893775 0.0239961
1781 2 40.041 20.145 6.80486 1.07137 0.189465 0.544376
26407 2 39.1884 22.3109 4.64371 0.230087 -0.845372 0.476856
1786 2 41.0344 22.2375 7.08644 0.388532 0.21437 0.0102121
1783 2 42.0474 20.0184 7.05556 0.421983 1.03445 -0.733566
270 2 45.5701 20.0166 5.63827 3.12305 -3.4221 -1.22105
356 2 50.1511 19.8117 5.69711 0.648816 -0.889552 -0.181747
26419 2 51.2114 21.3241 4.74218 0.562835 -0.109743 -0.0695953
1794 2 51.9083 22.1314 6.50426 0.422629 0.221505 0.620036
353 2 52.9327 20.249 80.6528 0.278464 -0.54016 -0.0610162
1797 2 55.1965 19.5795 7.21653 1.53914 1.06002 -0.83077
26276 1 56.2054 22.759 5.07221 0.757486 -0.00741108 -0.46837
1729 2 60.2463 19.8245 7.20388 1.71711 -1.33179 -1.9232
368 1 63.9619 21.949 7.09267 0.608886 1.2842 -0.270661
365 1 64.7424 22.4481 5.68588 0.837233 2.67112 2.18484
1809 1 65.6552 21.0482 5.58892 -0.680812 -0.701794 -4.29984
363 1 65.6688 21.0693 7.30358 0.0157268 2.16653 1.32957
26360 1 67.2152 21.716 7.28457 -0.836412 -2.48364 -1.51641
1813 1 67.6081 20.4282 6.25305 -0.171953 -0.612463 0.0825416
362 1 67.1568 21.3804 4.91102 -2.88513 -1.82022 -0.762739
26359 1 66.8199 22.6487 5.9391 2.65092 3.19152 -0.79028
371 2 70.871 21.5756 6.39714 1.41397 -1.65041 2.48243
1814 1 69.4948 22.7186 6.54576 -9.09629 0.655069 -1.15271
1810 1 68.4476 22.6809 7.87085 -0.143695 0.132358 1.60119
1738 2 71.6649 19.6986 6.73174 -2.58969 1.16474 0.833835
1817 2 73.3755 20.0225 5.65941 2.37241 2.76976 8.26053
447 2 72.5727 21.8528 5.15528 -0.199838 7.39186 2.51298
1893 2 75.2423 20.9114 5.80531 2.50344 -0.120515 -2.62505
1818 2 76.8142 21.1279 7.0719 2.21726 2.15501 -1.8682
1825 2 8.33093 23.4184 6.91493 0.795775 0.094012 2.43519
26375 2 8.70823 24.5507 5.21308 -2.19872 -0.484491 1.13197
26308 2 12.4398 23.7353 5.51836 -1.88232 -1.66018 0.970877
26383 2 14.4583 23.8986 6.40906 2.45315 -4.62746 -1.47795
26386 2 16.5283 25.0448 4.61525 2.46948 1.01562 -7.09283
477 2 22.4606 25.2338 6.88188 1.06468 1.54532 -1.82862
26390 2 22.6157 25.1319 4.86093 -2.1069 -0.564849 -0.0380188
26399 2 23.3827 23.3793 6.99112 0.971157 -0.942161 -0.293359
26393 2 24.3075 23.9948 5.22718 -0.436543 -1.22183 2.79311
26397 2 25.5967 25.3808 6.44055 0.405694 1.33956 0.57918
406 2 26.3036 23.6931 5.5576 -0.422694 -1.05416 -1.8054
327 2 28.1528 22.892 6.17894 4.68262 1.49621 -0.214649
1849 2 35.4419 22.9848 5.61834 1.71079 -0.201512 0.596128
408 2 36.1577 24.6512 6.5865 -0.571981 -1.5746 -0.72831
340 2 37.9742 24.5436 5.66525 0.108794 -0.188758 0.0428053
338 2 39.3686 23.2509 6.45991 0.289778 -0.261451 0.246614
26413 1 43.6195 24.8151 6.80313 -0.17436 -0.974267 1.92387
421 1 46.8164 24.6309 6.15178 2.44141 0.617082 -0.196412
26336 1 45.1146 25.3873 6.35286 -0.72557 -0.481042 2.90036
26411 1 48.3811 24.4625 5.53595 -1.9721 2.64283 1.49829
427 1 49.3548 23.5026 6.56291 0.423876 -0.423986 -1.08545
428 1 49.9047 25.5238 5.43724 -2.29212 -2.1915 0.130678
1871 1 50.8063 24.3403 6.26612 0.88209 0.480648 -0.867212
1873 1 52.417 23.8144 6.41508 0.0697036 0.261792 0.466518
431 1 52.7052 25.4215 6.82459 -1.95169 0.560384 -0.325455
1798 1 54.0924 23.653 6.11338 -0.585836 0.521046 -0.223165
26271 1 53.9635 25.2724 5.70742 -1.09202 -0.493482 -1.21813
26423 1 55.7727 23.9755 6.14614 -0.368751 -0.951204 -0.271943
26499 1 55.2218 24.752 4.73632 -1.92472 -0.034457 1.42848
355 1 54.6528 23.155 4.56843 0.246202 0.113891 0.672917
435 1 60.6869 25.2721 4.663 0.286507 1.51382 0.6452
440 1 59.1679 25.9802 4.59462 -0.769949 0.119685 0.258625
26280 1 62.17 24.4958 4.89403 0.546859 -0.131819 1.39188
439 1 63.8271 24.5514 6.63368 -0.913497 -0.643067 2.73902
1806 1 64.8186 23.3591 7.31801 1.08029 -1.60162 -3.56152
26351 1 63.564 23.6 5.25195 0.389858 0.493132 1.83257
26356 1 62.5041 25.5186 6.17998 0.0727149 1.72055 2.19045
443 1 68.1281 23.6643 6.3154 -4.40966 -1.72601 0.734208
26435 1 69.0897 24.9943 6.59735 1.37857 1.10708 2.20805
26444 2 73.2366 24.3788 80.3577 -1.26156 2.59141 -1.51686
376 2 74.8202 23.9494 5.31422 1.97727 3.44371 -3.7246
1821 2 75.8474 22.8665 6.73082 -1.22598 2.89003 -0.587568
381 1 79.6364 24.0847 5.17553 0.216779 0.764998 1.45881
26372 1 78.9061 24.4198 6.62817 2.23164 -3.22561 1.3466
464 2 6.6832 26.6976 5.44412 0.215321 -0.794375 1.07434
26452 2 6.39281 28.6389 4.83111 -6.42789 1.99539 7.67874
307 2 8.56656 26.3875 6.13466 -0.624117 1.83051 1.38235
1909 1 10.1468 26.3172 6.81495 -0.964157 -1.26688 3.88679
386 1 11.9053 27.7054 6.94254 0.0101118 -2.40556 -1.8166
465 2 12.407 27.047 5.08184 7.00548 7.29666 -12.4507
1768 2 15.9474 25.649 6.48922 -4.89928 -6.09005 -10.5481
26384 2 14.055 25.9006 5.90101 0.49043 1.38308 0.108088
393 2 15.1417 27.3713 4.85131 -1.42572 -8.63116 -6.42692
1837 2 16.1449 27.6783 6.57083 -1.46079 -2.34165 -1.06545
395 2 18.1373 25.4125 5.85298 3.30637 -7.75049 -1.22842
1921 2 19.1695 28.0362 5.73205 9.99159 8.05927 -4.54518
394 2 18.3977 26.7158 4.30216 21.6713 -6.81168 -3.17417
399 2 19.5065 26.4498 7.0032 -3.2453 5.53861 -3.8459
475 2 21.326 26.6558 5.92465 -0.608195 1.17305 -1.79707
549 2 20.9044 28.2379 4.58325 2.93157 -7.88534 -8.54773
1930 1 31.0229 28.5944 5.39215 -2.98429 0.725618 -1.2346
26475 1 30.3745 27.5804 80.6053 -10.5635 0.893589 1.61251
1854 2 36.7186 25.8849 4.77856 -0.0756508 -0.230049 0.110994
26406 1 38.2831 27.7375 5.28275 -0.0591434 0.27574 -0.0832957
491 1 39.8231 28.169 4.75249 0.0164689 0.283419 0.554155
26563 1 39.4522 28.5495 7.05096 -0.0736168 0.48326 0.318328
418 1 46.4542 26.2234 5.75581 1.81047 0.163029 -1.90033
26487 2 45.5597 27.8197 6.03191 0.637976 0.251635 -0.307255
345 1 47.883 26.8557 5.08389 -2.48821 0.729776 1.26956
426 1 48.761 27.9033 6.05517 2.69755 -1.02944 1.66336
26495 1 49.4083 26.5182 6.73096 -0.32563 1.1638 0.0736046
1949 2 58.2307 28.5652 6.81037 2.09322 0.664808 -2.00292
508 2 56.7473 28.5904 5.39577 -0.162817 1.3137 -0.268384
26504 1 59.88 28.1466 6.98733 1.30902 -0.948328 0.182554
1802 1 61.3931 27.4507 7.13319 1.51282 -0.0869763 -0.66754
1878 1 61.0454 26.3248 5.93746 0.880346 0.208879 0.164546
511 1 59.5295 27.0268 5.81835 1.95201 -2.04599 -0.00290716
1881 1 62.8541 26.6531 7.39867 -0.0661525 0.313501 -1.08095
26583 1 66.8487 28.5513 6.69351 0.227395 -1.78489 -2.48964
515 1 69.258 26.641 6.41897 3.43186 0.061731 1.69491
26516 1 69.1342 28.2095 7.06827 1.53532 -0.0892724 -0.982838
456 2 74.0854 27.1153 5.43067 -2.04739 4.02924 -0.541198
1974 2 75.8681 27.2616 7.27204 2.44281 1.8868 1.92903
26521 2 75.6309 25.832 5.83362 2.04484 2.91145 -0.911584
450 2 75.8506 28.5419 5.72069 -4.70235 2.68107 0.381037
529 2 76.733 27.0876 4.54297 2.79047 -2.62371 0.898881
459 2 5.52905 30.1249 5.91657 0.670676 1.63558 0.591729
538 1 11.3315 31.5643 4.8612 -0.00328263 -2.94219 3.13577
466 1 15.193 31.3069 5.84923 -0.714004 15.5754 0.361242
26460 1 15.1743 31.2538 7.62698 -5.49035 -2.26936 -5.50313
469 1 16.5865 30.2344 5.75558 -5.14059 1.70066 4.45381
1914 1 18.6852 30.9608 6.89172 -14.7378 25.2417 35.2993
26463 1 17.8151 31.4197 5.54521 -9.10079 2.68201 3.07968
473 1 17.261 30.3109 7.29035 8.07141 5.94704 4.42434
472 1 16.7161 31.8688 7.72953 0.247543 4.94916 5.03358
483 1 31.6565 30.5812 6.9485 1.17201 2.16123 3.20718
1929 1 31.4577 28.9469 7.08768 -7.51757 -5.97074 -2.45251
26479 1 31.6478 31.4514 5.29165 2.88999 -1.45817 0.504809
412 1 31.9539 29.6896 4.6649 5.76419 -10.905 0.0806691
1933 1 32.8656 30.4133 5.83908 -10.3132 0.995101 2.282
492 2 34.2481 30.575 4.80534 1.76704 1.02846 0.462887
488 2 36.8598 31.257 5.42376 -0.428875 1.32495 2.6084
26632 1 38.07 29.0542 6.26547 0.264603 0.593484 -0.416367
1940 2 38.6019 31.4383 6.51222 1.50105 2.7034 0.675143
1934 1 38.8384 30.1243 5.20519 1.40943 1.63963 1.36262
416 1 40.2338 29.4225 5.8444 1.00087 -0.0846541 0.632469
414 1 40.84 30.7966 5.03492 -0.12082 -0.0739957 -0.864814
1941 2 43.8327 31.4442 7.0427 -0.364453 -0.344766 0.0740449
502 2 44.3731 29.2605 6.94517 0.166817 0.0995727 -0.448623
1945 2 44.5838 29.2418 4.89084 -0.159423 0.150467 -0.198469
1866 2 45.4694 32.357 7.89335 -0.543305 -0.136577 0.840276
503 1 49.3265 28.8436 7.3343 -1.30131 0.709759 2.07108
498 1 48.6256 30.4143 4.89516 0.106756 0.145455 -0.006035
26490 1 49.1341 30.328 6.51097 0.437383 -0.326582 0.752627
26491 1 48.9926 31.8306 5.74288 0.261561 -0.0198557 0.378575
26571 1 52.4305 31.175 5.95291 -0.503479 -0.354317 0.283822
1946 2 52.998 29.6617 5.65056 -0.0102558 0.203094 -0.211006
436 2 54.9016 29.0191 6.08756 -0.19941 1.42244 1.65696
578 1 53.7841 32.1223 5.67133 0.265776 -0.579247 0.940537
587 2 61.5796 32.1079 4.77785 0.579883 -0.927601 0.0255614
522 1 68.2509 29.0357 5.92035 0.88393 -1.52231 -1.0272
1958 2 65.715 31.0034 6.01761 4.56778 -3.09935 2.84524
520 1 66.0639 29.3771 5.48683 -1.48077 -2.51107 0.994772
26515 1 67.4851 29.8645 4.65084 0.383085 0.655727 -0.972806
514 1 69.6129 29.7114 5.20721 -0.665016 0.568903 0.192118
26514 1 68.6059 31.0571 5.07967 -0.905126 -0.452913 0.0166853
525 1 70.8693 30.5876 4.53643 1.265 -0.0110155 0.344015
1894 2 73.8899 29.0918 5.25106 -0.720914 3.51798 2.01092
601 2 72.5131 30.8393 4.87442 -0.0111873 -1.90052 1.31719
1965 2 72.4962 31.0055 7.20169 -0.708806 0.421382 0.996162
26527 2 5.41828 32.1783 6.24021 0.400802 -0.592814 0.62725
534 2 7.49437 32.1046 6.12968 -0.110701 -0.512466 0.320993
26532 1 9.25858 32.087 5.89971 2.07191 -1.88475 0.030836
535 2 7.72301 33.9065 7.14257 0.377053 -0.2669 0.0238085
26531 1 10.8478 32.1836 6.32854 3.61552 -1.5119 -8.59882
539 1 12.3516 32.3472 7.01608 -0.449365 1.26365 2.72284
544 1 13.2181 33.398 6.07709 -2.05417 0.221372 5.66587
468 1 15.4447 33.0041 5.90777 -16.1372 -2.60165 13.5854
543 1 14.4618 33.471 7.18882 7.47088 4.80039 1.25893
542 1 15.4061 34.4793 5.09837 -6.86068 -3.18091 2.5055
1990 1 14.0185 34.8381 5.97668 -3.50808 3.74869 0.443824
548 1 16.8329 34.1321 7.10651 -1.61293 -0.0202889 4.65708
547 1 18.2252 32.4895 7.22575 0.227902 -8.34771 -3.34043
2065 1 17.1341 32.85 6.09417 3.11491 -1.88712 9.16643
476 2 20.0099 32.9551 6.64724 -13.5255 -22.3308 5.9472
471 2 20.4384 31.9285 5.06653 24.7835 12.5613 -11.6084
26543 2 22.338 32.1961 5.10254 -0.0803641 -0.0324547 -6.17405
551 2 22.1843 32.2456 7.19356 2.25107 0.784168 -2.22508
556 2 24.249 31.8807 6.94 -1.71012 -0.919231 13.9164
554 2 24.3979 32.3716 4.89002 -6.05977 7.37215 -17.8497
552 2 23.291 33.9416 7.29138 1.14036 1.2422 2.78847
26547 2 22.3524 34.2506 4.71856 -3.90488 -1.22573 2.75679
484 2 28.1981 32.1619 6.49637 -0.349808 4.41843 -5.97123
559 2 26.485 32.537 5.51831 3.06288 -1.32586 -2.95097
26480 1 30.8821 32.9459 5.55384 -0.156593 -1.9794 1.87321
26631 1 30.1943 34.484 5.47654 2.86934 -2.72044 -0.264903
1926 1 30.0888 32.4776 6.99382 0.787682 1.30247 2.04792
26552 1 29.5414 34.5161 7.0377 -0.564405 -1.49329 -0.680084
2009 1 31.6912 33.4949 80.5308 -2.21436 -8.42517 -5.81317
486 2 35.0929 32.3006 5.47657 -0.240426 1.476 -0.148941
2006 2 35.9355 33.9499 6.40255 0.174203 -0.180019 -1.54287
26559 2 37.9219 33.3405 6.13163 0.484379 0.0724406 0.900958
2013 2 40.2932 34.5867 7.10543 0.166615 -0.16267 0.630952
26488 1 42.0755 31.9189 4.88299 -0.429758 -0.270134 0.256444
1939 2 42.7351 33.1127 6.46581 0.42162 -0.0542035 -0.308285
570 2 44.3254 34.3721 6.04268 0.429068 -0.297174 -0.026804
574 1 46.4751 34.2076 5.07661 -0.152242 0.669349 -0.104995
26569 1 47.4552 34.418 6.38257 -0.3674 0.658176 -0.360121
573 1 48.828 33.31 4.95721 -0.429674 -0.246762 0.052637
26568 1 49.122 34.1359 6.38837 -0.607042 -0.385475 -0.269713
499 1 49.4868 32.6677 7.13506 0.325459 -0.548092 -0.0689435
26492 1 47.9887 34.7285 4.65971 -0.588904 0.699015 0.0440506
26567 1 50.7439 34.6005 6.49992 -0.116769 0.404486 0.382252
26496 1 51.8761 32.5525 6.71856 -0.467598 -0.110366 -0.258381
2022 1 52.8444 33.5352 5.71702 -0.471411 1.37092 0.807068
651 1 52.2055 35.3812 6.80441 -0.409722 0.172981 0.977026
2098 1 52.3881 35.8532 5.19104 0.342374 -0.249623 0.571811
2025 1 53.6383 34.4801 6.88402 -0.532802 -0.517715 0.626652
660 1 54.9805 33.0131 4.86005 -0.172546 1.65351 -0.301467
26580 1 55.992 32.593 6.13145 -0.329915 1.33876 0.121222
585 1 55.8444 34.4747 4.74306 0.736641 0.346151 0.537911
1954 1 58.0242 33.4282 7.11546 -0.320416 -0.72104 0.240388
581 1 56.974 33.9172 5.89189 0.488321 0.297413 0.436037
2037 2 59.6124 32.1818 5.39348 -0.244292 1.69521 -2.76046
592 2 61.8052 33.4764 6.30935 1.3223 -1.5847 0.901608
1964 2 60.317 32.451 7.32128 -1.44035 0.978591 0.996214
2030 2 62.798 34.4835 4.8307 0.397197 0.300782 1.59538
26584 2 64.6449 32.792 5.86956 -2.33022 3.52886 -0.304807
1957 2 63.2293 32.3235 7.27116 -0.237243 -0.943473 0.548313
2041 2 71.5078 34.4768 5.08045 -0.954526 0.450327 0.511133
524 2 71.9265 32.5428 5.92854 0.986221 -0.129714 0.301586
528 2 73.8921 33.1525 5.87883 -0.206308 -0.3056 0.10697
678 2 73.9469 34.7321 7.2313 -0.176377 -0.344268 -0.215096
2045 2 75.8341 33.0072 5.24488 -0.11363 1.47474 -0.239772
26519 2 76.191 32.8395 7.28153 -0.143783 -0.0638314 -0.0869181
2049 2 79.7229 32.588 6.27576 0.664208 -0.222603 0.329351
1977 1 79.5427 33.3431 4.63338 -0.637421 -0.644616 3.07432
2046 2 80.025 34.3655 7.31916 0.321671 -0.218417 0.0828681
692 2 6.19774 38.0067 4.82418 -1.15841 -1.39412 -8.38893
26608 2 8.04345 37.4912 5.75133 1.19977 -0.474499 -1.93789
540 2 9.45469 37.0874 7.24338 -1.12714 -0.735987 -2.2694
620 2 12.903 37.2028 6.11328 -0.110531 0.345947 0.536489
2057 2 10.9108 37.7863 5.91554 1.93905 -2.17665 -1.22371
2062 1 15.7275 35.2595 6.55996 -3.9996 -0.130067 2.94699
619 1 14.4798 36.3553 6.41267 -4.83681 -0.311809 3.26696
2069 2 20.8401 36.7852 5.56637 -3.17993 0.7148 2.23209
631 2 22.5937 35.5959 6.27673 0.792727 1.30774 2.21991
2070 2 22.7076 37.5122 5.61158 -0.34357 0.534473 -7.80918
2005 1 29.4874 35.908 4.82343 -0.281994 5.69744 1.35023
26627 1 29.8988 36.2221 6.42994 -1.22555 -0.835977 -4.89793
2233 1 31.4065 35.5762 5.97146 -0.555328 -0.526036 0.562662
561 1 32.071 35.1553 4.44448 -1.45068 3.63271 -3.31518
640 2 32.5993 36.8453 6.85525 -3.73026 -8.65422 -5.76774
26557 2 36.0974 34.933 4.56972 -0.798295 -0.236292 -1.29241
639 2 35.9949 35.8692 7.12984 -0.488978 -4.61823 -2.11156
25191 2 38.1201 35.0302 4.98604 -0.708516 -1.65949 0.69314
566 2 40.1761 35.1994 5.13505 0.293803 -0.164944 1.53958
642 2 40.3397 37.241 5.27739 1.29259 0.216334 0.951699
646 2 43.2466 37.2533 4.75951 0.107936 0.111101 0.101669
571 2 42.2755 34.7661 7.66343 -0.0906755 0.276749 -0.0947344
26639 2 44.8315 36.3035 5.57466 0.643807 -0.294638 0.235741
2094 1 50.7391 35.5246 5.08729 0.00771805 1.02979 0.472678
653 1 53.6752 36.8189 5.68064 0.566789 0.568594 0.715273
656 1 53.1065 36.7285 7.2611 -1.15983 -0.47061 1.34587
588 1 56.1571 36.0212 5.31317 -1.78361 0.981409 0.795985
2101 1 55.1719 36.8026 6.39362 0.266228 0.329252 1.66631
584 1 54.4874 35.7953 7.56066 0.273251 -0.11938 0.71037
583 1 56.8692 35.4002 6.69936 -0.220651 0.555955 -0.567497
671 1 65.2916 37.3196 6.33778 -0.200415 -0.0238668 -0.0304901
676 1 64.5707 37.6707 4.85874 -1.23544 1.22948 0.106902