ITEM: TIMESTEP
200000
ITEM: NUMBER OF ATOMS
27436
ITEM: BOX BOUNDS pp pp pp
4.3581534041774077e+00 8.0641846595826294e+01
4.3581534041774077e+00 8.0641846595826294e+01
4.3581534041774077e+00 8.0641846595826294e+01
ITEM: ATOMS id type xs ys zs
1454 2 0.155959 0.0232463 0.0199445
25999 2 0.136865 0.00444497 0.0178872
10 2 0.169208 0.00387303 0.00649382
96 2 0.18907 0.0333362 0.0164864
1468 2 0.215901 0.0389938 0.00443812
1549 1 0.272196 0.0384865 0.0322494
2834 1 0.291506 0.0317158 0.0237595
29 2 0.380629 0.0166456 0.00509703
32 2 0.383922 0.0164626 0.0376077
1404 2 0.40083 0.0270409 0.0193829
2849 2 0.421873 0.00940496 0.0209667
1481 1 0.457624 0.0331016 0.0165261
1482 1 0.475005 0.024655 0.00632164
115 1 0.512425 0.0089135 0.0075524
1412 2 0.534217 0.00373792 0.0175853
1489 2 0.541917 0.0254499 0.0326644
1567 2 0.569041 0.0226944 0.0292487
26036 2 0.584362 0.00526418 0.0163088
128 2 0.591201 0.0378521 0.0302344
27406 2 0.61086 0.00529562 0.00973923
2862 2 0.636755 0.00570145 0.000228921
27416 1 0.675536 0.0226808 0.0330434
1419 1 0.650792 0.00318649 0.0196646
1420 1 0.657264 0.0103927 0.0396724
53 1 0.692081 0.036452 0.0275268
55 2 0.714161 0.0107639 0.0194261
26047 1 0.695218 0.0148011 0.039982
1423 2 0.73474 0.00984673 0.00227572
1422 2 0.759427 0.0156367 0.0125504
60 2 0.768191 0.0269777 0.0357959
26127 2 0.765857 0.0396152 0.000539604
133 1 0.828664 0.0127728 0.018126
1430 1 0.820513 0.00888661 0.0383225
27420 1 0.837281 0.0323469 0.0221694
1426 1 0.848284 0.00362649 0.0216347
67 2 0.904676 0.0139596 0.0221289
1513 2 0.916594 0.0283331 0.00261996
65 2 0.933451 0.0324355 0.0236158
72 2 0.928381 0.00814359 0.0335653
75 1 0.973508 0.0120772 0.0031725
4 1 0.0144794 0.0409638 0.00548432
1521 1 0.0258695 0.0544967 0.018054
227 1 0.0370478 0.0735017 0.0183752
1597 1 0.0295493 0.0768675 0.0390026
2969 1 0.0687246 0.0653134 0.0338545
26075 1 0.0750105 0.0734173 0.00210306
1525 1 0.0593222 0.077185 0.0173769
87 1 0.10682 0.0638354 0.0214515
1527 1 0.0889156 0.0730324 0.0310178
26004 1 0.109652 0.0788443 0.00541754
1457 1 0.124288 0.0532895 0.0137227
1533 2 0.14317 0.0618638 0.0222674
26008 2 0.166309 0.047997 0.0196548
26088 2 0.205513 0.0518128 0.0257185
1617 2 0.215143 0.0746783 0.0367429
1538 1 0.267888 0.0651803 0.0398885
26091 1 0.267465 0.0562645 0.0198301
2840 1 0.300178 0.0515458 0.0274747
104 1 0.286591 0.051439 0.0100482
1474 2 0.38681 0.0659763 0.02472
26104 2 0.385907 0.0456883 0.00770102
107 2 0.412229 0.0740739 0.0300502
36 1 0.436719 0.0733143 0.036759
26108 1 0.441918 0.07504 0.00238878
26107 1 0.45104 0.0455564 0.0335401
1408 1 0.445529 0.0620177 0.0201313
2998 2 0.517205 0.0706791 0.0175052
116 2 0.540298 0.07915 0.028715
26114 2 0.592265 0.0733954 0.0393202
26115 2 0.611784 0.0540623 0.0348613
122 2 0.627008 0.0746496 0.0380608
26195 2 0.640678 0.0522347 0.0336707
126 2 0.662132 0.0687398 0.0282782
26045 1 0.678061 0.0534373 0.0282588
26048 1 0.707916 0.0468291 0.0390751
1502 2 0.759672 0.0501389 0.0245666
140 2 0.765061 0.0752258 0.015633
68 1 0.84825 0.0508712 0.0266128
26060 1 0.859087 0.0572397 0.0092211
71 2 0.915248 0.0494707 0.0344329
69 2 0.942101 0.0536615 0.0100471
145 2 0.930623 0.0707755 0.0275186
150 2 0.956326 0.0796563 0.0281741
74 2 0.964403 0.0538442 0.0257273
77 2 0.973619 0.0581261 0.000717858
8 1 0.0713521 0.0951495 0.0221525
83 1 0.0842233 0.11161 0.0292948
1529 1 0.0897926 0.0864107 0.0130541
1526 1 0.102805 0.102753 0.0214782
26080 1 0.11956 0.0979409 0.00851901
1605 2 0.120073 0.116702 0.0344238
100 1 0.21107 0.108458 0.00778846
97 1 0.229404 0.092865 0.0123005
24 1 0.221366 0.106886 0.0272367
95 1 0.236632 0.0821308 0.0303952
26096 1 0.248124 0.118905 0.0346413
1625 2 0.355577 0.099505 0.0226388
1623 2 0.343213 0.0824485 0.0389934
185 2 0.382718 0.0847858 0.00567184
1627 2 0.373038 0.0858773 0.0375867
188 2 0.398813 0.0946541 0.0396915
259 2 0.404996 0.0975643 0.0133208
26180 1 0.421585 0.115457 0.0113019
1631 1 0.440178 0.103914 0.0150025
187 1 0.452479 0.0852148 0.0178831
263 1 0.471174 0.111677 0.031871
1636 1 0.450109 0.116591 0.029702
1554 1 0.466152 0.0909384 0.0340799
1562 1 0.538642 0.102147 0.0302427
195 1 0.55328 0.115301 0.0203423
114 1 0.557353 0.106637 0.000962086
48 2 0.566245 0.0820709 0.0351127
26191 2 0.623186 0.0985427 0.0125942
197 2 0.610085 0.0945891 0.0380751
26120 2 0.645254 0.0893469 0.0255136
208 1 0.725482 0.107916 0.00905958
1654 1 0.74115 0.107611 0.0246107
136 2 0.754516 0.0993964 0.00707242
135 1 0.754419 0.0981607 0.0390587
26212 2 0.817236 0.104626 0.0179768
1662 2 0.853803 0.114123 0.0377902
1666 2 0.96117 0.0824662 0.00100162
152 2 0.982351 0.11187 0.0122006
1753 1 0.0336403 0.158905 0.0383512
160 1 0.0609898 0.127217 0.0281464
26152 1 0.0456781 0.142032 0.0322752
1681 1 0.0784323 0.154248 0.023636
163 1 0.0819864 0.132819 0.0247326
235 2 0.101214 0.155908 0.033628
162 2 0.115784 0.158021 0.00796763
88 2 0.120457 0.131924 0.0122983
1611 2 0.145918 0.123344 0.0156216
168 2 0.139056 0.135945 0.0383444
1613 1 0.231474 0.125898 0.0212075
26239 1 0.23314 0.145555 0.0315777
1614 1 0.212805 0.130735 0.00903849
174 1 0.210835 0.152712 0.0133962
26168 1 0.232904 0.1527 0.0105194
252 1 0.21336 0.155573 0.0356679
26163 1 0.2467 0.135755 0.00795353
26171 1 0.262724 0.126834 0.0201568
1697 1 0.276621 0.129911 0.00373795
181 1 0.313072 0.159291 0.0111571
179 1 0.293949 0.135788 0.0149975
183 1 0.313042 0.141306 0.0236718
3219 1 0.334537 0.143281 0.0274213
1701 1 0.356363 0.146297 0.0257866
184 2 0.35917 0.12522 0.0156049
1703 1 0.377123 0.147307 0.0335076
3145 1 0.400878 0.152408 0.0355366
1630 1 0.432474 0.134975 0.0129173
1705 1 0.434852 0.13501 0.0347096
335 1 0.432089 0.155348 0.0274136
26327 1 0.422829 0.158854 0.00802215
264 1 0.448628 0.149925 0.0135882
1706 1 0.455984 0.137962 0.0307303
1633 1 0.477759 0.133517 0.031101
1634 1 0.499535 0.138173 0.0337921
26188 1 0.559497 0.124523 0.0392892
121 2 0.611394 0.123629 0.0177219
275 2 0.608069 0.149706 0.0264571
1651 1 0.677458 0.131092 0.0376305
1721 1 0.69841 0.120039 0.00542385
26199 1 0.713511 0.120854 0.022306
203 1 0.68542 0.133387 0.0173862
207 1 0.698753 0.128458 0.0370399
1657 1 0.729833 0.121408 0.0377678
1661 2 0.80915 0.143703 0.0142079
1737 2 0.833749 0.15307 0.00815892
1735 2 0.812168 0.152927 0.0392876
295 2 0.842673 0.130519 0.020078
224 2 0.868862 0.14747 0.0218059
218 2 0.867931 0.1274 0.00367548
373 1 0.914144 0.150305 0.0107755
297 1 0.88979 0.151398 0.015113
1741 1 0.896373 0.159042 0.0334869
300 1 0.915401 0.130445 0.00127754
228 2 0.992225 0.126988 0.033356
1674 1 0.0362545 0.198944 0.0046552
303 2 0.00107374 0.169606 0.0351177
158 1 0.0409229 0.186392 0.0218543
231 1 0.0515305 0.169128 0.0309943
1746 1 0.0695146 0.173627 0.0189121
236 1 0.0611293 0.194003 0.0211159
240 2 0.111143 0.17868 0.0241275
238 2 0.129526 0.196845 0.0176642
26237 1 0.186062 0.186603 0.010289
26312 1 0.165975 0.19619 0.00866285
26311 1 0.203327 0.192531 0.0262606
397 1 0.215561 0.177557 0.0375383
251 2 0.279996 0.196083 0.00841878
1847 2 0.302148 0.196701 0.0243018
3142 1 0.33376 0.161263 0.0395226
1704 1 0.35361 0.167236 0.0324349
255 1 0.325419 0.172771 0.0229858
1777 1 0.352707 0.194517 0.0160164
175 1 0.336002 0.190581 0.030368
1699 1 0.366735 0.177684 0.0181517
1775 1 0.38774 0.183161 0.0219262
26324 1 0.383547 0.197239 0.0380876
339 1 0.407112 0.189224 0.0133758
3146 1 0.403467 0.183466 0.0367921
1779 1 0.417506 0.166345 0.0399363
196 2 0.585423 0.160787 0.0142211
1638 2 0.585087 0.179648 0.0341612
26263 2 0.562952 0.170438 0.000941909
26419 2 0.591765 0.199988 0.002146
1794 2 0.620482 0.198945 0.0257262
1718 2 0.611694 0.175022 0.0355756
1797 2 0.645788 0.194125 0.0344977
3176 2 0.700096 0.168488 0.0271452
26357 2 0.720855 0.181751 0.0154052
286 2 0.74282 0.196122 0.00839597
357 2 0.720743 0.197044 0.0374048
296 1 0.810877 0.183302 0.022569
291 1 0.825568 0.192588 0.0073237
367 1 0.805253 0.199859 0.00469599
26287 2 0.858709 0.162292 0.00121699
26291 1 0.913398 0.16889 0.0229859
299 1 0.910596 0.188217 0.0322211
26147 2 0.980321 0.160882 0.0195256
1748 2 0.966792 0.18097 0.0321636
311 2 0.0626617 0.23007 0.0163608
312 1 0.0517876 0.216725 0.000338378
26232 2 0.0885408 0.222285 0.0216968
237 2 0.109074 0.207414 0.0305751
26231 1 0.146437 0.20649 0.00758383
244 1 0.192207 0.207086 0.0140267
1761 1 0.18962 0.221707 0.0302067
26236 1 0.176177 0.214182 0.000547027
319 1 0.206348 0.210595 0.0391122
400 1 0.228305 0.212791 0.0395064
256 2 0.276582 0.231338 0.0208863
328 2 0.251409 0.223548 0.0139032
1762 2 0.251538 0.211363 0.0379428
323 2 0.278082 0.207135 0.0329571
26319 2 0.290274 0.219703 0.000461456
329 2 0.313629 0.205868 0.00130637
26395 1 0.363535 0.203916 0.0327082
1778 2 0.419223 0.210643 0.0149442
1784 2 0.436718 0.203118 0.0340514
1702 2 0.412724 0.232331 0.0314045
343 2 0.471951 0.233043 0.00728408
1781 2 0.455364 0.219253 0.0232231
268 2 0.506838 0.20781 0.0142854
1783 2 0.490682 0.226005 0.0258413
1785 2 0.525956 0.213835 0.0330665
356 2 0.59404 0.205255 0.0291358
1729 2 0.745486 0.206243 0.0330858
365 1 0.785301 0.235522 0.0151221
368 1 0.784688 0.227359 0.0350962
1809 1 0.800611 0.220255 0.0129054
26360 1 0.82921 0.227171 0.036172
1813 1 0.827942 0.210234 0.021623
362 1 0.820877 0.224678 0.00550342
1734 1 0.810327 0.202592 0.0330817
363 1 0.806699 0.224566 0.0338892
1817 2 0.905696 0.207127 0.0214161
447 2 0.893442 0.221837 0.00222476
380 2 0.952334 0.203565 0.0367592
1818 2 0.92882 0.215973 0.0305502
1821 2 0.942866 0.237716 0.028393
1893 2 0.929782 0.210015 0.00435903
389 2 0.0731768 0.271904 0.00108895
313 2 0.101036 0.246253 0.0221748
465 2 0.111564 0.271713 0.0224407
26399 2 0.249001 0.249575 0.00915011
26393 2 0.259472 0.273065 0.00387314
406 2 0.277606 0.253972 0.00521791
402 2 0.252893 0.260271 0.0338446
26322 2 0.373903 0.250638 0.0016161
1849 2 0.400464 0.24854 0.0137354
408 2 0.411834 0.268555 0.0268435
340 2 0.433977 0.26785 0.013597
26407 2 0.449639 0.247498 0.00350112
338 2 0.454759 0.260592 0.0312863
1786 2 0.476438 0.245728 0.0380574
26411 1 0.573245 0.26623 0.0215755
1870 1 0.586842 0.251251 0.0343699
345 1 0.59892 0.261956 0.00633902
1871 1 0.606769 0.25678 0.0264196
1873 1 0.627735 0.259587 0.0183146
26271 1 0.652427 0.258883 0.0164243
26266 1 0.671378 0.259707 0.00479794
26423 1 0.64135 0.26036 0.0355758
26356 1 0.753599 0.271847 0.0207937
511 1 0.720864 0.273052 0.0163565
26280 1 0.752083 0.260383 0.00193091
26351 1 0.767847 0.246072 0.00793831
439 1 0.769626 0.257278 0.0270437
26359 1 0.830735 0.240208 0.0185145
443 1 0.831449 0.256497 0.0358111
371 2 0.861695 0.242346 0.00550639
1814 1 0.848135 0.251879 0.0229917
372 1 0.862215 0.264542 0.0336587
26444 2 0.886537 0.248532 0.00207055
376 2 0.9133 0.254427 0.00615814
26521 2 0.926677 0.260017 0.0287952
384 1 0.960798 0.248056 0.0293627
381 1 0.978826 0.260055 0.0283157
26447 1 0.995541 0.243078 0.00320531
26443 1 0.978593 0.256679 0.00536225
307 2 0.0893291 0.284774 0.0293618
461 2 0.0873006 0.294721 0.00477335
26384 2 0.113977 0.300408 0.00250322
1768 2 0.13292 0.285032 0.0138702
395 2 0.155844 0.29809 0.0194102
394 2 0.169069 0.281432 0.00287096
399 2 0.180636 0.30636 0.0263711
1921 2 0.186127 0.302321 1.52133e-05
26390 2 0.2201 0.291738 0.00782655
475 2 0.207706 0.306728 0.0261156
477 2 0.241303 0.282555 0.0220433
26400 1 0.32309 0.314137 0.0162562
1930 1 0.344335 0.319884 0.0202684
26475 1 0.339659 0.304828 0.00417174
26406 1 0.462726 0.303328 0.00832994
26563 1 0.477764 0.310345 0.023242
25043 2 0.538437 0.316336 0.0212968
418 1 0.550707 0.302817 0.038411
421 1 0.561458 0.283535 0.0282798
26495 1 0.588262 0.281407 0.0158466
426 1 0.572284 0.301242 0.0354583
1869 1 0.588925 0.286019 0.0377577
1949 2 0.696967 0.301141 0.0320546
26504 1 0.716482 0.289205 0.0310019
1878 1 0.738425 0.286277 0.013921
1802 1 0.737231 0.294848 0.0342094
1881 1 0.756824 0.285252 0.0391582
1962 1 0.834313 0.299201 0.0206926
26583 1 0.821741 0.30402 0.0373265
597 1 0.822663 0.314448 0.00905618
515 1 0.852652 0.294768 0.0333194
514 1 0.863264 0.310019 0.0230862
595 1 0.850386 0.305877 0.00500095
522 1 0.847686 0.318819 0.0376929
1894 2 0.917034 0.315194 0.0352874
601 2 0.898584 0.318541 0.0152802
456 2 0.921357 0.287301 0.0334559
449 2 0.928918 0.288478 0.00979719
450 2 0.949968 0.306372 0.0101247
26452 2 0.0163044 0.356555 0.00819116
459 2 0.0360381 0.354649 0.0272035
1837 2 0.145787 0.322028 0.0266768
393 2 0.126085 0.323819 0.00875382
1914 1 0.167881 0.356162 0.0377122
549 2 0.204768 0.321866 0.0036035
471 2 0.216274 0.355316 0.0253854
26473 2 0.262918 0.349177 0.00141079
1929 1 0.354133 0.331823 0.0365545
483 1 0.348782 0.352587 0.0299438
412 1 0.349132 0.33646 0.00467005
26479 1 0.339565 0.35653 0.00958492
1933 1 0.36528 0.344473 0.0190245
492 2 0.384962 0.335954 0.00218854
486 2 0.40107 0.356719 0.0128074
1940 2 0.444583 0.354941 0.00776315
26632 1 0.466218 0.325218 0.0104692
1945 2 0.499431 0.339708 0.0301616
26487 2 0.53107 0.33702 0.0358071
422 2 0.543656 0.344362 0.012735
503 1 0.584098 0.320848 0.037702
26490 1 0.583481 0.340882 0.0287998
26569 1 0.578395 0.35862 0.0162709
26571 1 0.639559 0.353917 0.0187987
1946 2 0.641977 0.344334 0.000337742
508 2 0.685077 0.322438 0.0209707
592 2 0.738336 0.354973 0.0182065
26584 2 0.79091 0.359403 0.0155101
1957 2 0.767021 0.3517 0.0292791
1958 2 0.809157 0.352872 0.0346667
520 1 0.817736 0.323239 0.0286684
26515 1 0.837377 0.33306 0.0242991
446 1 0.838678 0.326797 0.00213833
525 1 0.878344 0.321076 0.01417
1965 2 0.91052 0.343541 0.0162869
526 2 0.930591 0.324089 0.0133419
26527 2 0.0372629 0.38105 0.0209439
2049 2 0.0098616 0.378764 0.0226521
1977 1 0.00328541 0.390615 0.00117112
534 2 0.0640055 0.379698 0.0242856
541 1 0.0894729 0.368686 0.00580418
538 1 0.109975 0.363275 0.00966352
26532 1 0.0872729 0.37652 0.026339
26531 1 0.109267 0.373668 0.0291722
26526 1 0.116505 0.382747 0.000586632
539 1 0.125423 0.386477 0.0206538
466 1 0.151185 0.370541 0.0398343
26463 1 0.181516 0.372433 0.0320341
470 2 0.193559 0.361055 0.0112341
468 1 0.163116 0.383451 0.0263208
542 1 0.173459 0.39844 0.0136612
26543 2 0.225921 0.380622 0.0196901
556 2 0.261952 0.377874 0.0323978
554 2 0.248758 0.370696 0.00937943
1922 2 0.279617 0.396689 0.0221989
559 2 0.280461 0.360797 0.0223296
1926 1 0.310782 0.361158 0.0341491
484 2 0.299239 0.379061 0.0276907
629 2 0.294808 0.391879 0.000442537
26480 1 0.330017 0.372062 0.0231475
2233 1 0.341479 0.385703 0.00945825
26631 1 0.321519 0.389247 0.000199479
2006 2 0.408915 0.383775 0.0143071
26559 2 0.434379 0.378491 0.0146028
1939 2 0.501524 0.36587 0.0228431
500 2 0.525243 0.377491 0.0290843
570 2 0.545435 0.395007 0.0285529
26645 1 0.563452 0.398651 0.0152059
573 1 0.567494 0.377368 0.0130227
26568 1 0.58689 0.386549 0.0122194
26491 1 0.594709 0.370667 0.0258573
26496 1 0.629275 0.364745 0.0347976
499 1 0.611562 0.385173 0.028016
2022 1 0.638511 0.384318 0.0278524
26567 1 0.627844 0.396727 0.0129558
2094 1 0.606224 0.39724 0.00999016
578 1 0.653518 0.371555 0.0171283
660 1 0.662241 0.383851 0.000542585
26580 1 0.678722 0.39144 0.0133915
577 1 0.671603 0.38895 0.0343154
26500 1 0.660134 0.370416 0.0384722
588 1 0.693763 0.398255 0.0269481
581 1 0.696234 0.37897 0.037073
2037 2 0.74375 0.382455 0.0176438
26591 2 0.879735 0.366949 0.0308954
600 2 0.866734 0.389707 0.0226127
524 2 0.897572 0.36565 0.00864805
2041 2 0.88421 0.38857 0.00118489
1971 2 0.925367 0.363539 0.0295646
26519 2 0.94266 0.383092 0.0391479
2045 2 0.948223 0.383611 0.000760115
678 2 0.920772 0.398335 0.0332036
528 2 0.923584 0.374266 0.00432063
2046 2 0.00798417 0.401463 0.0387076
544 1 0.139814 0.402157 0.0150315
1990 1 0.158204 0.413892 0.0126799
619 1 0.155306 0.424649 0.0316327
543 1 0.144569 0.405765 0.0362474
620 2 0.136395 0.439651 0.0272454
2062 1 0.17373 0.411855 0.0313296
26547 2 0.238421 0.404515 0.0176019
631 2 0.252464 0.425989 0.0270959
2070 2 0.257906 0.438792 0.00395451
2005 1 0.340067 0.406902 0.0159801
26627 1 0.339225 0.402411 0.0372737
2081 2 0.396787 0.418857 0.0351646
639 2 0.417791 0.410501 0.0230009
25191 2 0.432346 0.401686 0.000988698
2013 2 0.459606 0.403495 0.0318577
566 2 0.458697 0.406351 0.00379623
642 2 0.4782 0.434271 0.0178681
2010 2 0.486056 0.413773 0.0340438
2025 1 0.653243 0.401128 0.0308219
651 1 0.640928 0.414015 0.0177255
656 1 0.655027 0.433438 0.0280141
583 1 0.678013 0.413506 0.0163083
653 1 0.660976 0.425528 0.00857086
584 1 0.668087 0.4172 0.0361505
2098 1 0.640661 0.426294 8.12754e-05
674 2 0.865532 0.415752 0.0147756
598 2 0.871196 0.426099 0.0391376
599 2 0.885385 0.401619 0.0391449
604 2 0.900342 0.404504 0.0164448
684 2 0.955144 0.405951 0.034842
26671 2 0.938395 0.405413 0.013923
26604 1 0.983026 0.424689 0.0190649
681 1 0.990572 0.407401 0.00838209
26676 2 0.98128 0.408702 0.0380006
609 1 0.984377 0.436446 0.000413889
758 2 0.0307667 0.478949 0.0137584
692 2 0.0362886 0.45252 0.00213269
26679 2 0.0438289 0.459781 0.0266224
26608 2 0.0676179 0.450391 0.0184331
2057 2 0.100646 0.440806 0.0321494
613 2 0.0910975 0.442686 0.00760457
615 2 0.101472 0.465891 0.022685
618 2 0.126234 0.460066 0.0138791
700 2 0.147262 0.476052 0.0197145
623 2 0.189347 0.47263 0.0083934
2069 2 0.231058 0.441711 0.00181062
26695 2 0.213832 0.462577 0.00423186
711 2 0.348657 0.471371 0.0203332
640 2 0.388257 0.443187 0.0281535
634 2 0.373743 0.465062 0.0254675
26636 2 0.480859 0.455719 0.00165866
646 2 0.51691 0.441458 0.00262703
2090 2 0.500607 0.463557 0.0189284
2089 2 0.490102 0.447081 0.0383894
26639 2 0.539166 0.443683 0.0208482
652 2 0.528999 0.464561 0.00690321
650 2 0.563505 0.454166 0.0271921
725 2 0.570807 0.47573 0.0118204
26643 2 0.589587 0.450672 0.0310012
667 1 0.757031 0.452079 0.0101902
596 1 0.780696 0.446028 0.0309255
673 1 0.760877 0.456157 0.0318726
671 1 0.780078 0.454006 0.00983142
676 1 0.790563 0.469287 0.0213605
744 1 0.768445 0.475941 0.023929
2185 1 0.801705 0.451391 0.026795
3561 2 0.823803 0.454091 0.0206669
675 2 0.867753 0.44048 0.00645151
26668 2 0.852281 0.461751 0.0125784
2197 2 0.876654 0.469722 0.0198111
2115 2 0.886713 0.44525 0.0270741
685 1 0.95601 0.467634 0.0193387
755 1 0.937995 0.47976 0.0142129
26603 1 0.973558 0.441892 0.0287456
26675 1 0.96128 0.457115 0.0380155
26751 1 0.971742 0.451957 0.00975295
687 2 0.0175157 0.50094 0.022367
695 2 0.158642 0.508825 0.00501644
26687 2 0.137737 0.492188 0.000373216
624 2 0.17091 0.489219 0.0196117
2218 2 0.183152 0.504176 0.0388531
699 2 0.205482 0.50507 0.0232761
707 2 0.327407 0.483928 0.00840716
26709 2 0.374193 0.494787 0.00709631
2155 2 0.360885 0.492317 0.0308962
26788 1 0.408951 0.508819 0.00725228
719 1 0.429408 0.49822 0.0373273
795 1 0.428437 0.50506 0.0167607
26784 1 0.417931 0.516331 0.035561
648 2 0.508809 0.480419 0.000420155
2166 2 0.523043 0.515208 0.0208281
805 2 0.557149 0.497352 0.0201164
2174 2 0.61038 0.486541 0.000794278
731 2 0.627539 0.50743 0.00560308
733 2 0.647614 0.489374 0.00872904
739 2 0.66393 0.503112 0.0260572
26731 2 0.681621 0.50655 0.00634248
668 1 0.749283 0.484039 0.0159093
2112 2 0.730748 0.495061 0.0348983
743 1 0.759593 0.502415 0.00950997
748 1 0.778388 0.489086 0.00890188
751 1 0.885997 0.488591 0.0119837
760 1 0.903111 0.499392 0.0201188
3642 1 0.918621 0.505373 0.0344964
26748 1 0.920101 0.484183 0.00171889
750 1 0.921712 0.504243 0.0100301
831 1 0.931425 0.486726 0.0345865
753 1 0.942859 0.508116 0.00504224
833 2 0.962797 0.515893 0.00514735
26747 2 0.989188 0.518088 0.0097922
26752 2 0.00636051 0.522121 0.0338152
2281 1 0.0215309 0.558964 0.0351183
763 1 0.0442451 0.555943 0.0275414
26755 1 0.0624408 0.553237 0.0398172
26688 1 0.0739037 0.546129 0.00914747
2212 1 0.0806062 0.543598 0.0305058
690 2 0.0922385 0.53474 0.000957371
693 1 0.154245 0.543832 0.00334887
26692 2 0.182131 0.522172 0.0042024
694 2 0.179334 0.540569 0.0235863
773 1 0.165163 0.55759 0.0167172
775 2 0.209069 0.525407 0.00658353
704 2 0.204264 0.533541 0.031715
26776 2 0.263013 0.559343 0.00452644
785 2 0.283189 0.54319 0.0107689
2229 1 0.325331 0.552193 0.0332734
26783 1 0.399204 0.521513 0.0221097
2157 1 0.393898 0.532673 0.0389531
2164 2 0.467952 0.542599 0.0382583
3610 2 0.483877 0.521698 0.0316068
799 2 0.493271 0.53805 0.011171
875 2 0.516766 0.541335 0.0242505
2245 2 0.548101 0.520446 0.0306401
2321 2 0.542246 0.546537 0.032067
26796 1 0.564768 0.553008 0.0272759
26800 1 0.593866 0.539397 0.0356282
883 1 0.586436 0.556124 0.0226421
26879 1 0.562024 0.559122 0.00650935
812 1 0.612215 0.54038 0.0228053
26804 1 0.626686 0.538781 0.039099
2330 1 0.604505 0.558981 0.0097926
2329 1 0.624049 0.55792 0.0185267
26576 2 0.638606 0.531982 0.000332897
736 1 0.642555 0.537028 0.0238789
816 1 0.661926 0.557954 0.038653
26803 1 0.645003 0.558838 0.0245887
2409 2 0.680546 0.557481 0.0208303
738 2 0.68578 0.531192 0.0168575
2263 2 0.743023 0.527594 0.0308246
811 2 0.742926 0.55485 0.038013
2261 1 0.762065 0.524264 0.0114786
2262 1 0.780717 0.543017 0.00494049
899 2 0.817439 0.55931 0.0255962
828 2 0.842598 0.555838 0.0355245
2198 2 0.905485 0.527984 0.0359487
2347 2 0.906558 0.538155 0.00746812
2270 2 0.891244 0.559078 0.0155714
2202 2 0.956837 0.535789 0.0221525
26828 2 0.927497 0.538475 0.0245197
829 2 0.941461 0.54797 0.00407531
26746 2 0.981838 0.532195 0.0310194
841 1 0.0304578 0.570172 0.0186503
912 1 0.00388548 0.571018 0.0292871
838 1 0.0146522 0.585356 0.0167651
911 1 0.0591309 0.562587 0.0124944
2206 1 0.0714076 0.570809 0.0292844
766 1 0.084976 0.586457 0.0218548
774 1 0.152381 0.574447 0.0108127
26768 1 0.161098 0.5869 0.0267802
778 1 0.177026 0.572133 0.0281703
26696 1 0.196563 0.580987 0.0306608
2222 1 0.22313 0.599932 0.0249942
2301 2 0.272793 0.573219 0.0327907
865 2 0.317132 0.561579 0.0108508
705 2 0.291548 0.568181 0.0142957
857 2 0.298883 0.592544 0.0043553
26860 2 0.364467 0.582248 0.00849707
791 2 0.382909 0.563595 0.00772885
2234 2 0.405991 0.563583 0.0207283
2237 2 0.438642 0.592236 0.0135253
869 2 0.432297 0.568567 0.021162
871 2 0.455894 0.563185 0.0155356
720 2 0.467589 0.568561 0.0365699
2238 2 0.481406 0.576783 0.00732157
2239 2 0.502768 0.592294 0.0196688
2241 2 0.516852 0.56783 0.0171833
26876 1 0.578995 0.572347 0.00968243
2336 2 0.6704 0.579491 0.00819645
2257 2 0.702226 0.560721 0.00418683
2258 2 0.722467 0.56053 0.0218383
891 2 0.728037 0.586583 0.0214594
824 2 0.790985 0.561156 0.0192714
895 2 0.767746 0.562984 0.0323988
818 2 0.785271 0.582435 0.00186197
26816 2 0.826235 0.565591 0.00102886
898 2 0.815036 0.597843 0.0204864
903 2 0.856888 0.567214 0.0164055
2349 2 0.876161 0.587063 0.0164101
2346 2 0.846458 0.590989 0.00142839
907 2 0.908149 0.578051 0.0262813
832 2 0.909132 0.591921 0.00305139
915 1 0.990347 0.579321 0.0143764
762 1 0.983593 0.597531 0.0246339
26836 1 0.000584186 0.601559 0.0114821
917 2 0.0714733 0.63074 0.0029682
846 2 0.100166 0.600484 0.0109246
26911 2 0.0890623 0.621845 0.0219362
839 2 0.106128 0.628229 0.00299716
927 2 0.131285 0.629273 0.0135117
26847 1 0.187424 0.600671 0.0351471
2220 1 0.177929 0.620991 0.0333294
780 1 0.214135 0.616993 0.0358775
852 1 0.21044 0.638514 0.0369489
856 2 0.215295 0.637788 0.00708116
26852 1 0.311524 0.605685 0.0222855
864 1 0.307781 0.624678 0.0118459
935 1 0.297621 0.623754 0.0312141
26931 1 0.34113 0.600425 0.0288727
939 1 0.325814 0.612176 0.0385825
868 1 0.362209 0.600645 0.021961
2312 1 0.365578 0.618914 0.0352665
2240 1 0.434763 0.608811 0.0308621
26948 1 0.433375 0.638258 0.0191747
26939 1 0.449944 0.624909 0.0208238
2399 2 0.502386 0.616043 0.036378
2397 2 0.526735 0.612648 0.0350527
960 2 0.562691 0.632916 0.0296202
958 2 0.574559 0.630446 0.00510332
882 2 0.600596 0.628828 0.0136223
964 2 0.626932 0.627915 0.0223154
961 2 0.665759 0.61219 0.0301908
26875 2 0.647015 0.614524 0.0105878
26955 1 0.675422 0.632317 0.0308809
2335 2 0.684955 0.601329 0.0138308
896 2 0.710975 0.606814 0.0185405
2337 2 0.74669 0.602301 0.0323591
972 2 0.730454 0.623147 0.0279977
26963 2 0.739485 0.62378 0.00280527
2417 2 0.762188 0.619717 0.0172299
977 2 0.821247 0.622992 0.0124053
975 2 0.810601 0.632767 0.0353867
981 2 0.865814 0.609271 0.00577431
2350 2 0.908435 0.601905 0.0389993
2425 2 0.893114 0.607969 0.0174177
26899 1 0.966999 0.609044 0.0161767
2430 1 0.978008 0.627134 0.0107461
2357 1 0.976212 0.618718 0.0331212
920 2 0.00167605 0.657329 0.0316922
991 2 0.0574745 0.64457 0.0214724
914 2 0.0504526 0.663509 0.0391605
923 2 0.12627 0.650173 0.0302563
26991 2 0.126831 0.665215 0.00825802
26919 1 0.176585 0.642754 0.0264036
1003 1 0.171923 0.664465 0.0215626
929 1 0.19342 0.645597 0.0117319
26923 1 0.181859 0.661836 0.0019755
26846 1 0.201312 0.67242 0.00118909
2298 1 0.225876 0.646833 0.023577
26999 1 0.203657 0.662804 0.0211235
931 1 0.223068 0.667378 0.0306339
2374 1 0.24342 0.672783 0.0368206
858 1 0.308042 0.64546 0.00571588
25572 1 0.434756 0.655661 0.00243121
948 2 0.408762 0.667862 0.00398159
26943 1 0.464679 0.641398 0.00835324
876 1 0.457402 0.64212 0.0290217
954 2 0.552231 0.657286 0.0206237
27099 2 0.547968 0.678041 0.0043704
2402 2 0.602049 0.644429 0.035995
2481 2 0.614603 0.661096 0.0185758
27026 2 0.627803 0.645222 0.00147246
1040 2 0.632764 0.672164 0.0344487
27036 1 0.676955 0.666967 0.0268709
2406 1 0.665785 0.649654 0.0390601
26956 1 0.689703 0.649161 0.031905
2489 2 0.718919 0.669508 0.0117424
962 2 0.6925 0.679519 0.0131907
2492 1 0.722008 0.673048 0.0378203
27039 2 0.744284 0.663678 0.0032627
971 2 0.771998 0.640721 0.0316002
974 2 0.768961 0.654115 0.00812029
2422 2 0.818215 0.665382 0.0103446
26969 2 0.834913 0.644867 0.00430333
980 2 0.818967 0.65808 0.0360995
27043 2 0.857008 0.652276 0.0183168
1056 2 0.859748 0.678941 0.0127095
1057 2 0.885402 0.675964 0.021607
26976 2 0.89627 0.659632 0.00286123
984 2 0.920519 0.667205 0.013624
26980 2 0.943361 0.675808 0.0266324
1061 2 0.955826 0.67466 0.00233501
993 2 0.986627 0.649764 0.0108194
1062 2 0.981687 0.67643 0.0105116
26983 2 0.986346 0.678873 0.0372308
986 1 0.0223442 0.710093 0.000805263
992 1 0.0285429 0.717723 0.0397139
995 1 0.103626 0.714869 0.00872815
2439 2 0.0876981 0.71544 0.0388558
928 1 0.143088 0.695208 0.0115204
924 1 0.121607 0.701695 0.00779842
2441 1 0.141364 0.699245 0.0328351
2447 1 0.158672 0.68648 0.0376879
26996 1 0.159821 0.681708 0.0156448
1002 2 0.232411 0.707964 0.00338083
26928 2 0.243576 0.692282 0.0215243
2458 2 0.34738 0.689144 0.0156708
1014 2 0.332409 0.706532 0.0304014
1018 2 0.385521 0.699044 0.011632
1019 2 0.369192 0.694216 0.033206
2386 2 0.40746 0.686313 0.0217187
27011 2 0.423594 0.707951 0.0282655
1025 2 0.474569 0.709989 0.0186898
2469 2 0.493044 0.690419 0.0228941
27015 2 0.516989 0.68936 0.00916686
1027 2 0.539116 0.704188 0.00374457
1030 2 0.549758 0.709287 0.0289111
2478 1 0.590769 0.704842 0.0396199
1034 1 0.594193 0.713025 0.0190403
1032 1 0.616253 0.714348 0.0220235
27032 2 0.679067 0.701045 0.00369784
1048 1 0.731638 0.71547 0.0318996
1047 1 0.751623 0.708195 0.0259134
1051 1 0.755991 0.695209 0.00848542
1123 1 0.727811 0.694108 0.0360311
1052 1 0.772656 0.702461 0.0245245
1125 1 0.775815 0.702382 0.0030485
1053 2 0.835518 0.683809 0.00165478
2497 2 0.850403 0.682284 0.0382183
27052 2 0.909037 0.688521 0.0256883
1064 2 0.9332 0.701196 0.024232
2512 1 0.0299992 0.722274 0.0178691
26988 1 0.0337806 0.741652 0.0269787
996 1 0.0658971 0.732608 0.0230958
2513 1 0.0512993 0.722042 0.00904218
2437 1 0.0479042 0.729111 0.0379539
2520 1 0.0861733 0.725257 0.0174742
1071 1 0.0861802 0.738669 2.73846e-05
2442 2 0.168159 0.755332 0.0208579
1005 2 0.190115 0.746239 0.0342634
2446 2 0.201078 0.723162 0.027346
1008 2 0.206473 0.742638 0.0101403
1012 2 0.232062 0.735053 0.0159853
2449 2 0.250111 0.745203 0.0333981
2537 2 0.347043 0.721468 0.0131002
27082 1 0.33436 0.757501 0.0382795
27088 2 0.367058 0.721054 0.0314254
1093 2 0.384199 0.738689 0.00460991
2538 2 0.370796 0.747594 0.0264936
1095 2 0.401016 0.720776 0.0191796
1028 1 0.425482 0.754506 0.0142629
1026 1 0.434818 0.734284 0.0116069
27019 2 0.445484 0.721032 0.032274
2470 1 0.451254 0.749154 0.00654116
27024 2 0.531205 0.730098 0.00464166
1107 2 0.52873 0.72657 0.0301931
1111 1 0.597353 0.758821 0.0260365
27103 1 0.601336 0.741304 0.0135826
1031 1 0.612702 0.734146 0.0319525
1114 1 0.607986 0.722692 0.0033838
27107 2 0.665795 0.738166 0.00439077
1120 2 0.676337 0.753845 0.0236208
2565 1 0.711444 0.720748 0.0388792
2569 1 0.734815 0.737864 0.0306802
2568 2 0.75347 0.746698 0.016309
1122 1 0.728893 0.75845 0.0371107
1126 2 0.779613 0.743203 0.0092368
4085 2 0.772942 0.750384 0.0350548
2576 2 0.810561 0.744191 0.019677
4014 2 0.826991 0.753077 0.039718
27123 1 0.867374 0.720679 0.0101951
1055 1 0.864952 0.732801 0.0283178
26984 2 0.949803 0.721893 0.0171529
1139 2 0.939739 0.736608 0.0377044
1136 2 0.923895 0.752811 0.0224121
27059 2 0.958684 0.756146 0.0357668
27060 2 0.968506 0.741408 0.0153296
1067 1 0.0362144 0.762293 0.0339376
1143 2 0.0619525 0.788988 0.0263174
1145 2 0.0516826 0.782443 0.00218923
1148 2 0.0769603 0.799703 0.00657528
1072 1 0.0413879 0.782837 0.0345041
27068 2 0.109083 0.797443 0.0309284
1073 2 0.101312 0.78823 0.00717293
2518 2 0.14255 0.780824 0.030771
2522 2 0.149302 0.769363 0.00709128
1084 2 0.168104 0.788866 0.00962049
27071 2 0.169275 0.77846 0.0348849
1157 2 0.213574 0.782243 0.00183774
1010 1 0.281572 0.775961 0.0398124
1088 1 0.295383 0.793005 0.0388841
1096 1 0.346161 0.774143 0.0299174
1091 1 0.358827 0.792386 0.0215048
1087 1 0.33078 0.786822 0.0398958
27159 1 0.364922 0.771979 0.0195953
1245 1 0.378864 0.778742 0.00369679
2462 1 0.398057 0.769882 0.0113369
1171 1 0.386632 0.798945 0.00929819
27172 1 0.406573 0.78987 0.00641503
2546 1 0.415593 0.771421 0.025067
2617 1 0.410413 0.793113 0.0278342
27020 1 0.433784 0.774008 0.0378141
1102 1 0.444929 0.762337 0.0228252
2701 1 0.512574 0.787224 0.0340418
1108 2 0.529236 0.770567 0.00505879
1183 1 0.552796 0.785826 0.0318457
2550 1 0.534847 0.792185 0.0332367
2629 2 0.542596 0.768576 0.0291249
1263 1 0.598989 0.778202 0.0368747
1188 1 0.572591 0.794053 0.024019
2634 2 0.626589 0.790644 0.0264909
27183 2 0.641864 0.7901 0.00347947
2633 2 0.657713 0.771979 0.0155701
1192 2 0.651313 0.787475 0.0360919
27112 2 0.68956 0.76318 0.0015995
1200 2 0.718126 0.79745 0.0031605