ITEM: TIMESTEP
360000
ITEM: NUMBER OF ATOMS
45563
ITEM: BOX BOUNDS pp pp pp
4.7147136575628608e+00 9.5285286342434205e+01
4.7147136575628608e+00 9.5285286342434205e+01
4.7147136575628608e+00 9.5285286342434205e+01
ITEM: ATOMS id type xs ys zs
2 2 0.0193795 0.0149933 0.0258161
49 2 0.0339545 0.0245689 0.0116255
4 1 0.0480926 0.0228327 0.0230232
8 1 0.0577029 0.0133395 0.0101791
5 2 0.0422143 0.00676817 0.000251904
12 2 0.0955136 0.0100995 0.0198226
6 2 0.073627 0.0154758 0.0165699
10 2 0.119218 0.0170554 0.0178073
11 2 0.113686 0.0315014 0.0344919
13 2 0.139359 0.0225911 0.0274556
16 1 0.156861 0.0316267 0.0217254
14 1 0.172713 0.024182 0.0280984
15 2 0.191478 0.0134194 0.0296846
5861 2 0.20337 0.0237069 0.0130457
18 2 0.220921 0.0096427 0.0133745
19 2 0.228232 0.0199734 0.0318202
6086 1 0.275502 0.0244697 0.0204166
26 1 0.291614 0.032908 0.0238647
5869 1 0.288873 0.0164509 0.0108408
5828 1 0.306429 0.0182277 0.0158042
29 2 0.319077 0.023093 0.0313979
77 2 0.336467 0.0332928 0.0194103
30 2 0.34393 0.0120931 0.018604
33 1 0.357406 0.0192449 0.0072998
309 1 0.370046 0.0184552 0.0205526
310 1 0.371062 0.00302453 0.0305394
355 1 0.370348 0.0344154 0.0114244
38 1 0.446049 0.0337907 0.0305277
43 2 0.474172 0.021862 0.028552
45 2 0.490471 0.0224082 0.0128932
48 2 0.0286791 0.0469919 0.0125144
47 2 0.00717852 0.0472953 0.00580679
50 2 0.0242646 0.0466519 0.0353159
54 1 0.0658998 0.0684083 0.0234106
53 1 0.0671457 0.054041 0.0124079
5849 1 0.0713221 0.0410045 0.000256177
58 2 0.10102 0.0668499 0.0276924
55 2 0.120543 0.0628835 0.0163613
57 2 0.130391 0.0435134 0.0242334
62 1 0.147746 0.0482808 0.0141975
5858 2 0.140318 0.0626766 0.00443016
61 1 0.166004 0.0459414 0.0148395
17 1 0.180902 0.0408808 0.0244935
5857 1 0.181251 0.0454372 0.00461489
65 2 0.213986 0.0374544 0.0284192
64 2 0.20913 0.0592366 0.0242816
70 2 0.230126 0.0648339 0.031224
69 2 0.240906 0.0610936 0.0117746
74 2 0.253768 0.0549405 0.0297629
301 1 0.284301 0.0644711 0.0209801
302 1 0.281242 0.0478288 0.0289652
73 1 0.299231 0.0426026 0.0094956
351 1 0.301943 0.0584038 0.0194402
76 1 0.329015 0.0498626 0.0135436
348 1 0.326356 0.058897 0.031921
78 1 0.316912 0.0392212 0.00357143
397 1 0.312604 0.0704939 0.0285702
123 1 0.34161 0.0609884 0.0215837
82 1 0.356378 0.0657353 0.0108326
125 1 0.35578 0.0705422 0.0287857
79 1 0.368045 0.0510589 0.00321178
85 1 0.423421 0.0631168 0.0306403
44 1 0.43094 0.0444706 0.00916868
86 1 0.434715 0.0481598 0.0268773
90 1 0.44034 0.0603088 0.0108647
83 1 0.44044 0.0698664 0.0268919
88 2 0.488291 0.0398298 0.0316794
89 2 0.484146 0.0423483 0.00484591
91 2 0.493469 0.0623903 0.0102713
97 1 0.0563205 0.0810395 0.0333837
99 1 0.0561622 0.0902627 0.0173376
100 1 0.0444239 0.0989939 0.00639629
104 1 0.0738437 0.0852817 0.0209574
101 2 0.0936704 0.0810305 0.0114311
103 2 0.114481 0.0803892 0.00218999
108 1 0.133488 0.105817 0.011884
105 1 0.138919 0.0991151 0.0283148
106 1 0.15151 0.105035 0.0161105
66 2 0.189451 0.0744193 0.0261011
109 2 0.184151 0.0964725 0.0271285
107 2 0.168607 0.0812364 0.0343148
113 2 0.209029 0.0805774 0.017095
110 2 0.206025 0.102217 0.024478
118 1 0.248589 0.106983 0.0150264
117 1 0.240157 0.0971147 0.00176101
71 2 0.268294 0.0720314 0.0290572
119 2 0.289442 0.0962745 0.0276951
124 2 0.301264 0.106291 0.0111933
128 2 0.371849 0.0974408 0.0246505
6135 2 0.375698 0.0959351 0.00182781
126 2 0.392848 0.104543 0.0277751
132 2 0.397875 0.0962147 0.00720049
405 1 0.415209 0.0787172 0.0356813
133 1 0.450583 0.100396 0.0158263
131 2 0.452406 0.103445 0.0328816
96 2 0.0355114 0.109964 0.0187072
94 2 0.0379825 0.131827 0.0128771
146 2 0.05332 0.138115 0.0275265
145 2 0.0692254 0.132202 0.0118499
98 2 0.0898411 0.135944 0.0195138
5941 2 0.0845585 0.117953 0.00320403
152 2 0.156715 0.130079 0.0270335
153 2 0.165901 0.114782 0.00938398
112 2 0.174336 0.116327 0.0299804
157 2 0.215572 0.113563 0.00701942
162 2 0.217652 0.130814 0.0219952
163 1 0.260377 0.119814 0.0210408
161 1 0.259046 0.127854 0.00254307
120 1 0.271881 0.11602 0.00747791
166 1 0.269688 0.134824 0.0271401
165 1 0.267066 0.142454 0.0106443
352 2 0.308726 0.11148 0.0317444
169 1 0.320743 0.141827 0.0193442
404 1 0.349599 0.135391 0.0297319
174 1 0.339074 0.139942 0.0154959
173 1 0.39468 0.129747 0.00708205
129 1 0.41087 0.113469 0.0304616
5969 1 0.409916 0.126379 0.0170734
130 1 0.42829 0.122936 0.0152685
455 1 0.426926 0.122701 0.0337307
177 1 0.432869 0.140824 0.0160908
179 1 0.429671 0.141383 0.0348061
5932 2 0.460335 0.115076 0.0099518
138 2 0.494947 0.108086 0.0171095
136 2 0.473445 0.111672 0.0283348
181 1 0.48604 0.141744 0.006713
185 2 0.0009483 0.17317 0.029914
188 2 0.0232618 0.176644 0.0343933
150 2 0.0934605 0.158551 0.0235368
191 2 0.0730474 0.166042 0.0292214
149 2 0.114877 0.150368 0.0236458
5946 1 0.129039 0.167198 0.00449517
6147 2 0.130675 0.148517 0.0044078
6149 1 0.159392 0.143754 0.0109601
154 2 0.136334 0.143872 0.0255448
5995 1 0.176228 0.157456 0.00105781
5954 1 0.172286 0.15468 0.0189576
158 1 0.184534 0.166055 0.0266191
483 1 0.212518 0.174107 0.0341331
209 2 0.228162 0.14559 0.0355096
211 1 0.287188 0.14498 0.0273773
6007 1 0.283248 0.150621 0.0100754
5966 1 0.301679 0.159393 0.00909316
170 1 0.304685 0.150154 0.0245785
215 1 0.320304 0.152599 0.0040362
6011 1 0.316923 0.16472 0.0173958
6012 1 0.335059 0.165486 0.0199169
6157 1 0.338692 0.155301 0.00479102
723 1 0.34588 0.153413 0.0291292
178 1 0.414915 0.143965 0.0124889
175 1 0.413371 0.149421 0.0304859
6019 1 0.422727 0.155928 0.00017048
176 1 0.434711 0.159223 0.0179442
5978 1 0.451657 0.155812 0.0134108
182 2 0.469865 0.150364 0.0137248
225 2 0.472927 0.171262 0.00501596
501 2 0.473548 0.158725 0.0344319
23508 1 0.00277977 0.19347 0.0140323
186 1 0.00854154 0.207856 0.0241116
192 2 0.0580377 0.201544 0.00456405
465 2 0.0444775 0.182593 0.0288931
190 2 0.0655442 0.185522 0.0193149
196 2 0.075889 0.203346 0.0301059
194 2 0.0971569 0.195262 0.0317104
195 1 0.104754 0.193199 0.0131842
148 1 0.117275 0.181249 0.00596244
199 1 0.179814 0.183625 0.0277885
201 1 0.186779 0.187232 0.0109934
204 1 0.178721 0.20416 0.0104957
249 1 0.194864 0.212787 0.0148336
198 1 0.177019 0.202079 0.0291523
156 1 0.200145 0.181226 0.0220319
205 1 0.212885 0.191176 0.00882331
208 1 0.204673 0.199229 0.0235549
206 1 0.256767 0.210363 0.0124611
486 2 0.293207 0.20886 0.0271985
533 1 0.273495 0.211421 0.0206141
259 2 0.305427 0.207815 0.00819392
224 2 0.374644 0.201058 0.00833948
265 2 0.376388 0.214257 0.0264123
269 2 0.426837 0.193956 0.00340798
11562 2 0.412337 0.209782 0.0105521
6208 2 0.433205 0.214167 0.0165019
226 2 0.474865 0.179654 0.0259868
234 1 0.0214198 0.242143 0.0180668
231 1 0.0173854 0.223756 0.0274234
233 1 0.0225219 0.225374 0.00950635
462 1 0.0054216 0.238977 0.0277424
232 1 0.00507062 0.219983 0.00556205
237 2 0.0579423 0.215805 0.0225514
238 2 0.0427516 0.227753 0.0104851
246 2 0.139407 0.245434 0.0283529
245 2 0.154739 0.231078 0.0196677
200 2 0.16662 0.22033 0.0044449
247 1 0.186615 0.217732 0.0309528
6049 1 0.253594 0.22855 0.0147693
6233 1 0.257573 0.246752 0.0142832
531 1 0.267951 0.228823 0.0263222
252 1 0.273462 0.236757 0.010193
253 1 0.28177 0.220666 0.00735372
489 2 0.320701 0.221302 0.0180737
262 2 0.32837 0.240868 0.0315369
261 2 0.329842 0.239702 0.00907035
540 2 0.359668 0.247326 0.010748
6245 2 0.377176 0.234675 0.0170241
270 2 0.392669 0.220924 0.00850242
6247 2 0.381816 0.24972 0.0335174
11818 2 0.414605 0.243614 0.0114066
271 1 0.451055 0.221719 0.0248798
274 1 0.458111 0.238794 0.0163151
222 1 0.454833 0.244187 0.0336503
548 1 0.467482 0.229072 0.0285245
272 2 0.48758 0.232662 0.0312512
279 2 0.00579353 0.0204929 0.0661002
277 2 0.00638237 0.0154665 0.0443209
51 2 0.0396374 0.030121 0.0367572
282 2 0.0634053 0.0312636 0.0693608
286 2 0.0963925 0.018201 0.04139
285 2 0.0816581 0.0273626 0.0559481
288 2 0.0901097 0.0107347 0.0702144
289 2 0.126737 0.0162024 0.0457185
287 2 0.109364 0.00943146 0.0584957
292 2 0.132872 0.000269443 0.0606001
59 1 0.162803 0.0318424 0.0417469
296 1 0.186106 0.0189416 0.0675624
293 1 0.17869 0.0303912 0.0548768
21 2 0.211854 0.00515937 0.036204
298 2 0.25914 0.0199122 0.0420401
300 1 0.24951 0.0134189 0.0678773
18054 2 0.266589 0.000384244 0.05057
22 1 0.271303 0.0336256 0.0362307
25 1 0.287969 0.0274322 0.0416828
32 2 0.333065 0.00595781 0.0375383
27 2 0.303719 0.0167547 0.0466549
305 2 0.319416 0.00320733 0.0563107
311 2 0.378366 0.0228823 0.0701322
586 2 0.398317 0.00394161 0.0557895
635 2 0.400479 0.0247088 0.0655399
313 2 0.401307 0.0344251 0.0448374
35 2 0.405883 0.0138319 0.0364871
18098 1 0.435863 0.00847714 0.0633954
42 1 0.457005 0.0233811 0.0416283
37 1 0.44336 0.0230247 0.0544687
314 1 0.450745 0.0288358 0.0707794
317 1 0.467563 0.0218158 0.0669141
87 1 0.468407 0.0333964 0.0527166
46 1 0.486065 0.0213065 0.0660887
95 1 0.0117719 0.0626108 0.036003
280 2 0.015814 0.0361731 0.0539164
325 2 0.0313709 0.0410257 0.0702406
326 2 0.0328064 0.0638105 0.0696613
327 2 0.0489211 0.0410242 0.0547362
323 2 0.0549985 0.0612063 0.0644449
331 2 0.0928009 0.0474064 0.0567302
56 2 0.10192 0.0673119 0.0500589
335 1 0.151573 0.0416235 0.0531536
336 1 0.153958 0.0593659 0.0576069
337 1 0.165536 0.0388314 0.0651138
294 1 0.19173 0.036345 0.0698356
63 1 0.176863 0.0438371 0.0424143
339 1 0.171789 0.0543894 0.0572734
341 2 0.185378 0.0687654 0.05923
67 2 0.225869 0.0470281 0.0453154
343 2 0.214185 0.0621809 0.0578628
23 2 0.243789 0.0357314 0.0365937
347 1 0.298328 0.0512696 0.0363288
349 1 0.294226 0.0421592 0.0521265
627 1 0.292805 0.0382509 0.0704346
354 1 0.301474 0.0575552 0.0593411
75 1 0.313258 0.0581655 0.0448734
356 2 0.387952 0.054468 0.0502139
357 2 0.377673 0.045977 0.0691008
359 2 0.405585 0.0550498 0.0368533
316 1 0.443126 0.0403735 0.0473129
39 1 0.447002 0.0565427 0.0384958
590 1 0.455224 0.0440801 0.0606674
363 1 0.462016 0.0575242 0.0499012
367 1 0.483886 0.0388291 0.061522
368 1 0.478534 0.0566008 0.0596629
364 2 0.491369 0.0610856 0.0448258
324 1 0.0146857 0.0768285 0.0474383
369 2 0.0274772 0.0844564 0.0612914
371 2 0.0214607 0.106228 0.0591498
373 1 0.0539768 0.0734965 0.0501303
52 1 0.0568444 0.0861419 0.0634836
419 1 0.0617776 0.101095 0.052823
374 1 0.070107 0.0933822 0.0374643
375 1 0.0783911 0.101589 0.0610636
332 1 0.115205 0.0922452 0.0552184
378 1 0.125672 0.0948406 0.0404653
381 1 0.127135 0.106673 0.0548491
60 2 0.152255 0.0930175 0.0442462
383 2 0.15913 0.0778299 0.0629067
385 2 0.171764 0.0950322 0.0549155
387 2 0.203669 0.0817204 0.0628117
389 2 0.224256 0.0899878 0.0683631
344 2 0.231158 0.0759904 0.0513419
68 1 0.249003 0.0765411 0.0543088
393 2 0.261514 0.0871064 0.0634627
390 2 0.243683 0.101644 0.0646527
72 2 0.273808 0.0890451 0.0436496
394 2 0.290909 0.0922744 0.0583009
121 2 0.303124 0.0836553 0.0416255
399 2 0.313584 0.100991 0.0517538
358 1 0.378761 0.0728726 0.0517399
401 1 0.369982 0.0796225 0.0370114
677 1 0.386789 0.0765697 0.067997
362 1 0.415853 0.0964572 0.0363708
360 2 0.424949 0.0963688 0.0534587
84 2 0.44302 0.0843534 0.0409397
407 2 0.44606 0.0942407 0.0608659
361 1 0.460379 0.0744251 0.0577413
366 1 0.464938 0.0904344 0.0656414
412 1 0.499288 0.0918868 0.0648059
365 1 0.477054 0.0739336 0.0655648
415 2 0.0255836 0.114229 0.0386978
139 2 0.015699 0.129332 0.0521723
143 1 0.0660389 0.117621 0.0454674
423 1 0.0814576 0.107242 0.0433616
421 1 0.091788 0.122408 0.045114
144 1 0.0765864 0.132741 0.0475526
147 2 0.103704 0.136039 0.0374319
384 1 0.128996 0.119383 0.068154
151 2 0.14783 0.140362 0.0442823
382 2 0.186329 0.112505 0.0496098
386 1 0.194028 0.119673 0.0687773
155 2 0.202752 0.121759 0.036424
114 1 0.229229 0.11402 0.0631108
433 1 0.212203 0.118828 0.0676662
159 1 0.236529 0.122513 0.049068
160 1 0.252593 0.130365 0.0513747
485 1 0.26924 0.135267 0.0577628
164 1 0.28361 0.140152 0.0681446
440 1 0.278163 0.139729 0.0423971
444 2 0.32234 0.129141 0.0365909
167 2 0.328418 0.120521 0.0563159
403 2 0.363865 0.126745 0.0671752
402 2 0.356063 0.128231 0.0456753
447 2 0.338034 0.140063 0.0521776
171 2 0.373254 0.114487 0.0396656
408 2 0.384274 0.124507 0.0573284
406 2 0.428353 0.118728 0.0540594
453 2 0.407059 0.125506 0.0588024
409 2 0.450626 0.114475 0.0520505
134 2 0.492857 0.12038 0.035774
410 2 0.48742 0.131794 0.0546605
23463 1 0.00629429 0.145965 0.0585114
189 1 0.00199 0.163617 0.0555485
461 2 0.0350823 0.169704 0.0527312
420 2 0.0533835 0.164995 0.0401969
142 2 0.0623294 0.144877 0.0470498
193 2 0.0892443 0.17415 0.0428241
102 2 0.114596 0.14512 0.0556058
471 2 0.128731 0.1759 0.0600459
425 2 0.109938 0.166613 0.0682793
424 2 0.135977 0.154238 0.0576812
431 1 0.185119 0.165598 0.045045
477 2 0.16877 0.174105 0.0644029
435 1 0.203513 0.163556 0.0467473
432 2 0.205925 0.144139 0.0397426
438 1 0.210033 0.175241 0.0601012
436 2 0.245263 0.147544 0.0502285
450 2 0.350221 0.159105 0.0500928
724 2 0.380133 0.168642 0.0686435
448 1 0.403909 0.171772 0.0456426
221 1 0.420385 0.168415 0.0386983
451 1 0.408496 0.154323 0.0475154
728 1 0.417987 0.15896 0.0627491
498 1 0.427549 0.172922 0.0551369
223 1 0.436129 0.159014 0.0365932
497 1 0.442253 0.162141 0.0539126
686 2 0.474498 0.143557 0.0693028
180 2 0.476241 0.162329 0.0562417
456 2 0.49405 0.1522 0.0472568
738 2 0.0251224 0.187444 0.0672357
422 2 0.0375994 0.191544 0.0488125
469 1 0.0837384 0.179382 0.0605029
472 1 0.0831957 0.197879 0.0605353
515 1 0.0759646 0.21353 0.0665905
470 2 0.108013 0.185034 0.0484759
197 2 0.121781 0.197171 0.0612333
475 2 0.148504 0.181147 0.0705161
428 1 0.17524 0.1811 0.0459097
473 1 0.17567 0.199681 0.0474773
523 1 0.19119 0.206987 0.0545577
482 1 0.222544 0.181387 0.0476248
478 1 0.202492 0.19219 0.0567172
527 1 0.210993 0.193584 0.040116
481 1 0.230449 0.189632 0.0623555
525 1 0.216641 0.202236 0.063704
529 2 0.255195 0.211469 0.0630216
492 2 0.286209 0.206077 0.0488683
488 2 0.274399 0.199763 0.0672146
535 2 0.31403 0.210857 0.036691
490 2 0.307284 0.19886 0.0543733
172 2 0.36015 0.179526 0.0488447
218 2 0.370664 0.197271 0.040143
217 2 0.383548 0.185625 0.0539424
493 1 0.404042 0.187513 0.0554968
452 1 0.419218 0.18576 0.0657574
494 1 0.408492 0.202951 0.0644315
500 2 0.45232 0.206683 0.0557475
545 2 0.461552 0.186834 0.0618408
502 2 0.47922 0.183427 0.047797
505 2 0.495374 0.185944 0.0632835
510 2 0.00302712 0.245308 0.0609503
235 2 0.0619752 0.229637 0.040019
513 1 0.0636058 0.227278 0.0686495
511 1 0.067002 0.239927 0.0555666
239 2 0.0830291 0.221766 0.0416369
236 1 0.0867404 0.227366 0.0595618
512 1 0.0809235 0.243242 0.0677375
243 2 0.152673 0.233963 0.0422166
519 1 0.143767 0.240304 0.0594249
517 1 0.137148 0.225398 0.0675095
474 1 0.179757 0.219716 0.0479514
521 2 0.174206 0.237676 0.0471092
6733 2 0.195504 0.242259 0.0521925
803 1 0.203378 0.217265 0.0644094
530 2 0.246561 0.245212 0.0651884
534 2 0.25998 0.224897 0.0448705
6235 2 0.251447 0.24587 0.0431713
528 2 0.268075 0.238951 0.06057
6488 2 0.287367 0.226314 0.059309
213 2 0.320896 0.228694 0.0490885
536 2 0.307822 0.218774 0.0649469
541 1 0.432144 0.226818 0.0649766
543 1 0.436433 0.216373 0.0500727
267 1 0.445151 0.229584 0.0406045
264 1 0.443335 0.239367 0.0566105
550 2 0.471346 0.214611 0.0653443
551 2 0.497326 0.23527 0.051526
555 1 0.000823972 0.00329745 0.10614
554 2 0.00900517 0.024581 0.0878939
18082 1 0.0572596 0.00508564 0.0831197
283 2 0.0728796 0.0168323 0.0842386
604 2 0.0881589 0.0326884 0.0907301
557 1 0.12799 0.000943192 0.0872453
607 2 0.104981 0.0262969 0.0767545
565 1 0.137971 0.0112278 0.0759486
566 2 0.148786 0.0236796 0.0863283
568 2 0.158621 0.00433619 0.0932123
567 2 0.173328 0.0188087 0.10226
569 1 0.180085 0.0208582 0.0850792
573 1 0.253046 0.0289159 0.0769351
345 1 0.266056 0.0341728 0.0912443
299 1 0.265909 0.0134838 0.0757852
308 1 0.29551 0.0199943 0.0723056
574 1 0.278428 0.0205175 0.0875081
579 1 0.29421 0.0332158 0.0881563
577 1 0.287551 0.0253739 0.102665
578 1 0.308538 0.021867 0.0849138
581 1 0.323115 0.0250632 0.0965518
858 1 0.340021 0.032265 0.100108
582 1 0.344095 0.014713 0.104813
592 2 0.384199 0.0261226 0.0919197
862 2 0.377625 0.00261643 0.0960041
587 2 0.384434 0.000971943 0.0736589
865 2 0.394716 0.012717 0.106204
18072 1 0.441613 0.00331935 0.0802261
322 1 0.451009 0.0183496 0.0860687
597 1 0.452704 0.0139633 0.103927
18329 1 0.467247 0.00309693 0.0985114
319 1 0.467813 0.0111115 0.0818668
320 1 0.48334 0.00480908 0.0738631
599 2 0.0227774 0.042576 0.0916587
603 2 0.0301932 0.0638952 0.092314
328 2 0.0627684 0.0499105 0.0827587
329 2 0.0846798 0.05197 0.0771888
610 2 0.0705937 0.0410245 0.102021
653 1 0.0951507 0.0674948 0.106744
333 2 0.108922 0.0485718 0.0723335
338 2 0.107818 0.0712484 0.0719738
611 2 0.160978 0.0416116 0.0938852
291 1 0.176627 0.0383496 0.0805194
615 2 0.174255 0.0582958 0.102012
295 2 0.197937 0.0549021 0.0722409
617 2 0.225938 0.0549022 0.105237
619 1 0.253448 0.0454851 0.0846187
665 2 0.237926 0.0696165 0.0922837
620 2 0.259598 0.0622486 0.0920966
625 1 0.288555 0.0563908 0.072647
350 2 0.273283 0.0703224 0.0750637
575 1 0.275388 0.0386722 0.106284
623 2 0.274504 0.0698683 0.10713
585 1 0.350188 0.0448269 0.0908658
631 2 0.358851 0.0557846 0.0779343
589 2 0.397172 0.0413043 0.0811635
679 1 0.400435 0.0676868 0.0765337
681 1 0.411539 0.0546641 0.0828884
638 1 0.409552 0.0585912 0.101135
591 1 0.417592 0.0421361 0.106327
23818 1 0.499758 0.0577431 0.100836
644 1 0.48172 0.0579746 0.0965933
595 1 0.489721 0.0420878 0.101664
649 2 0.0332342 0.0849472 0.100222
372 1 0.0414982 0.0905153 0.0729414
376 2 0.0493443 0.0968324 0.0895299
330 1 0.0668175 0.0954322 0.076419
377 1 0.0848122 0.098104 0.0777694
608 1 0.0976448 0.0841498 0.0990434
379 1 0.108283 0.0910871 0.0720975
334 1 0.100549 0.0982483 0.0873038
612 1 0.110203 0.0719353 0.0931269
660 1 0.113019 0.105952 0.0989226
616 1 0.169042 0.0743591 0.0952786
342 2 0.175349 0.07519 0.0783773
340 2 0.197645 0.0753486 0.0839799
346 2 0.218879 0.0816658 0.0892404
624 2 0.280257 0.0854507 0.0910407
395 2 0.276866 0.100861 0.0743184
630 1 0.290833 0.0963551 0.103679
398 2 0.321858 0.106034 0.0720595
353 2 0.336655 0.0943757 0.0849141
628 2 0.345799 0.0737554 0.0813123
675 2 0.351551 0.0859165 0.0999086
632 1 0.393298 0.0856054 0.0830115
633 1 0.400087 0.0728083 0.0941165
684 2 0.400828 0.101742 0.0959278
685 1 0.482055 0.0902034 0.0727761
641 1 0.482175 0.0765591 0.0975791
643 1 0.492671 0.0883266 0.0884138
370 2 0.0189259 0.123537 0.0737545
646 2 0.0214593 0.121311 0.0959174
417 2 0.01973 0.142805 0.0896168
695 2 0.048583 0.111766 0.107095
656 1 0.0970732 0.113789 0.105256
654 2 0.100145 0.131264 0.093325
701 1 0.119551 0.135455 0.0969474
658 1 0.130795 0.119767 0.0865424
661 1 0.130442 0.111916 0.102764
427 1 0.131148 0.135529 0.0771613
703 1 0.135371 0.129455 0.103736
388 1 0.178809 0.125427 0.0780969
662 1 0.195559 0.128476 0.0847209
392 1 0.213201 0.124502 0.0853118
711 2 0.219501 0.134701 0.101818
715 2 0.261257 0.135921 0.0867345
442 2 0.239593 0.132426 0.0917638
670 2 0.267799 0.114733 0.0896606
443 1 0.300177 0.140686 0.0757991
445 1 0.321945 0.121559 0.0863591
400 1 0.308681 0.133774 0.0908083
674 2 0.338908 0.114806 0.0950964
721 2 0.345708 0.135677 0.102364
678 2 0.372834 0.118963 0.0865623
727 2 0.389074 0.132866 0.0785392
725 2 0.383772 0.114064 0.105138
682 2 0.406285 0.117567 0.0805827
729 2 0.422342 0.133102 0.0845125
688 2 0.431167 0.121656 0.101853
733 2 0.4456 0.136419 0.0928595
457 2 0.497836 0.135918 0.0739751
692 2 0.0184953 0.164964 0.0953552
699 2 0.086745 0.149011 0.0906399
426 1 0.0797419 0.16564 0.0941133
380 2 0.101104 0.146596 0.073734
430 2 0.126308 0.168089 0.0909637
706 1 0.119142 0.153422 0.0994731
704 2 0.157979 0.146511 0.0977252
429 2 0.140776 0.153002 0.0801498
434 2 0.160794 0.162964 0.0823288
757 1 0.218316 0.175513 0.0943759
437 2 0.245587 0.142946 0.0722023
441 1 0.29612 0.143851 0.10011
719 1 0.277945 0.147289 0.0844827
446 1 0.278833 0.14969 0.103089
439 1 0.29473 0.155496 0.0855715
762 1 0.290656 0.171297 0.0950246
992 1 0.275243 0.167874 0.105236
765 1 0.317244 0.172452 0.102023
769 2 0.351503 0.157102 0.0729294
771 2 0.359832 0.178239 0.0715917
491 1 0.33427 0.178454 0.0982047
722 2 0.350588 0.156717 0.0954682
449 2 0.372277 0.147588 0.0723637
454 2 0.40723 0.144781 0.0715023
458 1 0.427174 0.164316 0.0778867
499 1 0.444886 0.164626 0.0720094
731 2 0.460003 0.152811 0.0854542
734 2 0.468415 0.15266 0.106696
508 2 0.0145302 0.206188 0.0739689
463 2 0.0118067 0.184087 0.0850239
744 1 0.0545858 0.213003 0.100482
742 1 0.0650731 0.19797 0.0971003
468 1 0.0668303 0.204287 0.0797771
466 1 0.0759901 0.188626 0.0748543
467 1 0.0764162 0.183392 0.0932364
702 1 0.0936178 0.186686 0.100037
700 2 0.107804 0.180177 0.0867462
749 2 0.131371 0.189144 0.0832291
476 2 0.134195 0.21 0.0749535
479 1 0.219606 0.18108 0.0747931
480 1 0.20738 0.206605 0.0785198
754 1 0.211987 0.191568 0.0878319
753 1 0.203433 0.196075 0.103525
484 2 0.245126 0.195808 0.0764896
758 2 0.263714 0.196312 0.0893118
764 2 0.248671 0.211699 0.0953893
761 2 0.281251 0.184596 0.0820703
720 2 0.3516 0.179241 0.0926712
539 1 0.396327 0.21112 0.0974173
732 1 0.428102 0.182213 0.0819925
819 1 0.416969 0.208266 0.0989836
774 1 0.430993 0.198725 0.0904628
496 1 0.403876 0.209136 0.080826
773 1 0.427171 0.183666 0.104345
504 1 0.445777 0.182915 0.075851
503 1 0.449064 0.198536 0.0856581
823 1 0.441856 0.194759 0.104543
778 1 0.457029 0.213903 0.0932872
506 2 0.495257 0.204922 0.0864851
824 2 0.478373 0.194986 0.0750661
507 2 0.00667318 0.227771 0.0745243
6717 1 0.0243456 0.232939 0.0864011
784 1 0.0194994 0.227096 0.103114
790 1 0.0381981 0.24227 0.0946938
787 1 0.0557859 0.218496 0.0831407
514 1 0.0542494 0.237043 0.0867769
788 1 0.0723622 0.235957 0.0827031
518 1 0.0748029 0.247835 0.0969686
799 2 0.19778 0.233573 0.0727129
797 2 0.196343 0.234076 0.106876
796 2 0.196611 0.248341 0.08935
804 2 0.234375 0.241282 0.0912278
807 2 0.246755 0.226658 0.0783121
768 2 0.298002 0.240013 0.101268
6492 2 0.302685 0.23813 0.0749091
811 2 0.318247 0.228942 0.102952
532 2 0.320219 0.245559 0.0877528
537 1 0.382372 0.221 0.104894
495 1 0.418775 0.217436 0.0738455
816 1 0.423503 0.223912 0.0908384
546 1 0.43298 0.23688 0.0809287
6500 1 0.446239 0.247989 0.0733725
6757 1 0.439952 0.246335 0.0957917
821 1 0.460178 0.22989 0.102362
544 1 0.455464 0.239717 0.0873358
6760 1 0.460245 0.224147 0.078132
549 2 0.491065 0.222951 0.0724266
553 2 0.00746677 0.0212154 0.109974
832 2 0.0209828 0.0227936 0.137514
556 2 0.00327562 0.0351847 0.130563
833 2 0.0510809 0.0294893 0.140471
564 1 0.109817 0.01183 0.107599
837 1 0.105094 0.0269817 0.116392
18548 1 0.115434 0.0210317 0.130495
838 1 0.113366 0.00366212 0.123642
848 1 0.133289 0.0252635 0.133518
842 1 0.130493 0.000449128 0.117136
841 1 0.14228 0.0107404 0.127065
571 2 0.195744 0.0243498 0.11935
572 2 0.183934 0.0048489 0.116697
845 1 0.194051 0.0243204 0.139703
1122 1 0.226589 0.0316898 0.142351
584 1 0.32616 0.0107299 0.107981
861 1 0.366023 0.00684163 0.132785
863 1 0.370544 0.0024583 0.115543
866 1 0.418488 0.0235805 0.107575
868 1 0.402774 0.0247719 0.117185
596 1 0.436773 0.0217701 0.109138
594 2 0.461749 0.0319577 0.111321
872 2 0.456175 0.0224106 0.137105
870 2 0.466101 0.00247315 0.141714
869 2 0.477155 0.0289935 0.133091
873 2 0.478745 0.00889049 0.123766
598 2 0.48311 0.0251109 0.109381
601 2 0.0168278 0.0413547 0.113588
830 2 0.0344527 0.0379603 0.127587
606 1 0.0519349 0.0654081 0.140225
879 1 0.0684909 0.0606737 0.134893
561 1 0.0814799 0.0549425 0.10861
605 1 0.0829721 0.0525965 0.126789
883 1 0.0938724 0.0412484 0.11735
609 1 0.0989242 0.0591951 0.133715
887 1 0.105327 0.0557 0.116591
614 1 0.11536 0.0701619 0.110786
613 2 0.180666 0.0384777 0.109311
618 2 0.195149 0.0587405 0.110705
891 2 0.209704 0.0412881 0.113749
849 1 0.233983 0.046042 0.133954
895 2 0.242511 0.0563437 0.120752
621 2 0.260252 0.0476825 0.131809
899 2 0.28892 0.0391254 0.138066
626 2 0.279441 0.0518119 0.120574
583 1 0.351687 0.0438704 0.109131
629 2 0.36028 0.0545591 0.123448
904 2 0.345867 0.0627929 0.14002
909 2 0.375422 0.0706598 0.13478
637 1 0.43036 0.0360752 0.118778
912 1 0.405645 0.0427053 0.120537
911 1 0.406696 0.0613642 0.119373
915 1 0.419758 0.0423738 0.132952
913 1 0.417526 0.0608136 0.134611
593 2 0.458479 0.0540615 0.113971
642 2 0.44279 0.0703283 0.115443
648 2 0.0178353 0.102498 0.108131
647 2 0.0287297 0.0887982 0.121786
652 2 0.0432217 0.102809 0.131853
650 2 0.0655143 0.107047 0.121327
655 1 0.0931434 0.0966452 0.112621
926 1 0.0857543 0.105471 0.127412
659 1 0.124173 0.0859522 0.114192
657 1 0.111628 0.0992078 0.116515
888 1 0.132012 0.101962 0.118216
892 2 0.212912 0.0730224 0.109642
663 2 0.229256 0.0863487 0.118447
937 2 0.212536 0.0987306 0.1275
939 1 0.213267 0.0865287 0.142592
622 2 0.248367 0.0763862 0.110984
671 1 0.279238 0.104081 0.115252
672 1 0.272178 0.106391 0.132127
673 1 0.29926 0.104493 0.117839
634 2 0.362986 0.0759085 0.116911
951 2 0.347235 0.0834563 0.131073
953 2 0.357221 0.104065 0.13157
680 2 0.354829 0.106795 0.108956
908 2 0.390025 0.0866785 0.142601
914 2 0.403941 0.0820051 0.125041
636 2 0.423704 0.0829491 0.114351
957 2 0.420711 0.0881823 0.138539
683 2 0.418559 0.104566 0.110744
958 2 0.430387 0.10694 0.130374
640 2 0.4565 0.0816416 0.129631
639 2 0.46696 0.0745566 0.110731
965 2 0.48972 0.102263 0.130678
916 2 0.471626 0.0937265 0.141992
645 1 0.00159107 0.108179 0.116234
691 2 0.0344743 0.128704 0.113114
697 2 0.0564056 0.119704 0.137658
929 1 0.0996355 0.107941 0.139281
651 1 0.10328 0.11494 0.122759
934 2 0.154059 0.128212 0.110746
933 2 0.144473 0.112663 0.123495
705 2 0.175019 0.123079 0.118535
664 2 0.193018 0.114493 0.128846
709 2 0.185263 0.132906 0.139502
391 1 0.232109 0.140818 0.115325
938 2 0.211455 0.115835 0.142063
669 1 0.260078 0.118532 0.12497
666 1 0.246396 0.130694 0.1213
667 1 0.243709 0.133939 0.139506
668 1 0.259355 0.124298 0.142596
396 1 0.265277 0.114059 0.107808
946 1 0.317247 0.107716 0.120376
949 1 0.302837 0.113847 0.133444
676 1 0.315765 0.124851 0.12637
717 1 0.330597 0.131748 0.118006
954 2 0.36597 0.126808 0.108994
995 1 0.333592 0.114932 0.125113
950 1 0.348557 0.122529 0.132968
997 1 0.341562 0.139637 0.130727
962 2 0.4622 0.130717 0.107739
687 2 0.460425 0.112509 0.135148
961 2 0.446245 0.118099 0.118286
690 2 0.476617 0.117816 0.120131
694 2 0.0239038 0.148839 0.111094
739 2 0.0207702 0.159043 0.131267
1015 1 0.029369 0.177008 0.126601
696 1 0.0720405 0.171837 0.109561
980 2 0.156745 0.167341 0.1398
707 2 0.177434 0.14349 0.108561
710 2 0.186749 0.152272 0.12691
1029 2 0.176567 0.172171 0.129658
984 2 0.2019 0.143513 0.112763
714 1 0.226735 0.168139 0.109467
708 1 0.210186 0.160114 0.111926
755 1 0.20588 0.177922 0.108711
713 1 0.241392 0.149055 0.128911
712 1 0.241726 0.165973 0.120545
718 1 0.258272 0.166692 0.112343
759 1 0.24815 0.176321 0.134753
1037 1 0.265036 0.169319 0.12963
716 1 0.289855 0.15309 0.11734
998 1 0.28249 0.169308 0.122871
763 1 0.30012 0.175885 0.122501
487 1 0.302011 0.163854 0.108306
999 1 0.354064 0.152722 0.134669
726 1 0.365759 0.166491 0.138114
775 2 0.42966 0.167528 0.113099
1004 1 0.419797 0.17259 0.142117
777 2 0.451707 0.164278 0.116388
1053 2 0.437065 0.177543 0.131583
779 2 0.471041 0.165724 0.127729
1057 2 0.490927 0.169801 0.138448
740 1 0.0165171 0.185524 0.137766
1017 1 0.0267353 0.197539 0.127846
698 1 0.0341133 0.213188 0.120761
418 1 0.0577634 0.179446 0.118144
741 1 0.0506545 0.205063 0.116811
737 1 0.042794 0.189415 0.123115
743 1 0.0666422 0.195927 0.115605
745 1 0.0824104 0.185995 0.114752
747 1 0.094246 0.200092 0.115517
748 1 0.10474 0.207415 0.128845
982 2 0.138486 0.181188 0.140446
756 1 0.190901 0.180056 0.119975
1026 1 0.177866 0.204101 0.129061
751 1 0.190805 0.198524 0.116954
760 1 0.220859 0.183063 0.119065
1079 1 0.212655 0.210826 0.110976
1034 1 0.22433 0.200662 0.121537
1033 1 0.236077 0.189762 0.130158
1036 1 0.246612 0.201274 0.139912
1041 1 0.30094 0.184749 0.138928
809 1 0.317028 0.182399 0.117644
1038 1 0.316894 0.192358 0.133427
767 1 0.332841 0.199404 0.128163
766 1 0.333743 0.1891 0.11314
1048 1 0.345484 0.209088 0.137267
1091 1 0.363104 0.210275 0.142831
1000 1 0.375615 0.181714 0.141304
817 1 0.392897 0.205962 0.137198
770 1 0.404207 0.196775 0.12634
776 1 0.413269 0.194158 0.110386
730 1 0.405163 0.183423 0.139498
780 1 0.455657 0.206 0.109893
782 2 0.49266 0.192938 0.14029
783 1 0.0172274 0.219961 0.119914
786 1 0.0308576 0.238909 0.111319
1059 1 0.0286564 0.231113 0.128237
791 2 0.0909957 0.245429 0.137762
795 1 0.100877 0.217665 0.113848
746 1 0.100342 0.2331 0.12685
793 1 0.114799 0.221359 0.134946
752 1 0.115219 0.228566 0.11777
1022 1 0.126641 0.233797 0.14153
1032 1 0.169597 0.217633 0.138714
1075 1 0.180039 0.22194 0.124321
750 1 0.195279 0.216743 0.114975
801 2 0.206866 0.239142 0.126267
800 1 0.222572 0.243724 0.116578
806 1 0.222791 0.225881 0.113869
1030 2 0.203385 0.223825 0.141818
1080 2 0.24206 0.229036 0.108459
805 2 0.262525 0.246764 0.126964
1083 2 0.277801 0.241354 0.111688
815 2 0.337954 0.236462 0.111153
542 1 0.357227 0.236981 0.114273
1094 1 0.355818 0.235646 0.13283
1088 1 0.341758 0.226898 0.141715
6751 1 0.37605 0.236856 0.112899
6753 1 0.393934 0.232732 0.113588
820 1 0.407292 0.220672 0.108744
7006 1 0.423897 0.229078 0.109088
1098 1 0.427852 0.232191 0.127127
1054 1 0.465755 0.215529 0.136994
826 1 0.442225 0.231974 0.107192
825 1 0.462326 0.220813 0.118764
1099 1 0.445391 0.226022 0.12461
1097 1 0.447229 0.221447 0.142713
1103 2 0.486184 0.21508 0.140408
828 2 0.493596 0.241941 0.120733
1104 2 0.48319 0.237804 0.140737
24038 2 0.498879 0.220013 0.122218
877 2 0.00702523 0.00563216 0.143541
835 2 0.0383185 0.011943 0.147501
843 1 0.123065 0.0170552 0.146868
889 2 0.128512 0.034144 0.169356
844 2 0.132804 0.0121618 0.163464
18846 1 0.190023 0.00968203 0.164118
1124 1 0.189814 0.026999 0.157722
18809 1 0.204067 0.00380278 0.154001
852 1 0.228432 0.0138194 0.144242
1128 1 0.210802 0.0190229 0.145808
1123 1 0.207837 0.0321129 0.159312
853 2 0.267153 0.0175811 0.163033
580 2 0.268794 0.0311355 0.144766
854 2 0.289786 0.0187373 0.166341
857 2 0.304229 0.0308553 0.153357
860 1 0.315509 0.025393 0.165542
864 1 0.359965 0.00348129 0.150176