ITEM: TIMESTEP
360000
ITEM: NUMBER OF ATOMS
45563
ITEM: BOX BOUNDS pp pp pp
4.7147136575628608e+00 9.5285286342434205e+01
4.7147136575628608e+00 9.5285286342434205e+01
4.7147136575628608e+00 9.5285286342434205e+01
ITEM: ATOMS id type x y z vx vy vz
2 2 6.46993 6.07267 7.05289 2.20385 -0.288313 -0.251889
49 2 7.78999 6.93993 5.76764 -0.86839 3.82827 -0.350669
4 1 9.07049 6.78269 6.79994 2.00287 -1.6555 1.46109
8 1 9.9409 5.92288 5.63664 0.974031 1.06907 0.826913
5 2 8.53808 5.32771 4.73753 -2.27941 -0.600872 -1.53774
12 2 13.3654 5.62943 6.51006 3.08378 -0.506047 -2.6436
6 2 11.3832 6.11636 6.21546 1.30107 0.806014 -0.72088
10 2 15.5123 6.25943 6.32753 -0.952616 0.603745 -1.21193
11 2 15.0113 7.56781 7.83867 0.132588 -0.93991 1.14243
13 2 17.3365 6.76081 7.20138 0.35308 0.101304 3.80065
16 1 18.9217 7.57917 6.68239 2.81861 0.562977 1.3829
14 1 20.3574 6.90489 7.25961 0.542837 -0.245658 -0.407347
15 2 22.0569 5.93011 7.40326 -1.16705 -1.55382 -0.890348
5861 2 23.1341 6.86186 5.89627 -0.824056 -2.2861 0.777454
18 2 24.7237 5.58806 5.92605 -0.17392 1.14198 2.60974
19 2 25.3858 6.52371 7.59669 2.41221 -1.96557 -1.35108
6086 1 29.6671 6.93095 6.56386 -0.986844 0.436947 -2.90908
26 1 31.1264 7.69521 6.87615 0.891159 -1.45352 -1.50812
5869 1 30.8781 6.20468 5.69657 -3.10062 -2.92429 -0.321757
5828 1 32.4682 6.36561 6.14611 2.33229 -3.33173 -0.670119
29 2 33.6137 6.80626 7.55844 3.42179 -0.909692 2.32217
77 2 35.1887 7.73006 6.47272 0.319451 -3.1132 -0.679473
30 2 35.8646 5.80999 6.39969 1.60671 -0.468886 1.26138
33 1 37.0852 6.45774 5.37586 0.462977 3.90989 -2.83657
309 1 38.23 6.38621 6.57617 -1.88064 2.29385 0.915606
310 1 38.322 4.98865 7.48068 -2.72504 2.08237 0.517531
355 1 38.2573 7.83174 5.74943 -1.66687 -0.431619 2.64285
38 1 45.1136 7.77516 7.47963 1.31678 -1.8437 -0.636036
43 2 47.6607 6.69476 7.30068 -1.28979 0.302865 1.59687
45 2 49.1369 6.74423 5.88246 1.16491 -0.585229 2.31341
48 2 7.3122 8.9708 5.84815 1.17143 -1.92488 -0.533171
47 2 5.36488 8.99827 5.24064 0.306057 -2.06352 2.1208
50 2 6.91237 8.94 7.9133 0.581626 0.874153 -0.683207
54 1 10.6833 10.9105 6.83503 -3.56104 2.31863 -2.54034
53 1 10.7961 9.60924 5.8385 2.47644 -1.12714 2.42036
5849 1 11.1744 8.42852 4.73792 1.5087 1.18312 2.8657
58 2 13.8642 10.7693 7.22283 -0.00395741 1.11235 0.620932
55 2 15.6323 10.4101 6.19656 2.48279 -1.64651 -2.21266
57 2 16.5243 8.65575 6.90955 -1.64851 -1.38511 0.0850027
62 1 18.0962 9.08753 6.00059 -2.10504 -0.207025 1.51223
5858 2 17.4234 10.3914 5.11596 -0.0995806 1.07796 0.27377
61 1 19.7498 8.87565 6.05873 1.5994 -1.71413 -0.806042
17 1 21.0991 8.41731 6.9331 -0.0992781 1.66585 -1.93944
5857 1 21.1307 8.82999 5.13269 0.597899 2.1904 -1.21829
65 2 24.0955 8.10698 7.28866 0.202485 2.35288 0.225923
64 2 23.6557 10.0798 6.91392 -0.633669 3.67555 4.80031
70 2 25.5574 10.5868 7.54269 2.61668 0.671035 -2.0731
69 2 26.5337 10.248 5.78114 0.847905 -1.64529 1.82768
74 2 27.6986 9.69071 7.41036 -0.166319 0.17594 0.384126
301 1 30.464 10.5539 6.61489 0.94713 0.552047 0.0416181
302 1 30.187 9.0466 7.33811 -4.44794 -4.19272 -3.47816
73 1 31.8162 8.57325 5.57474 -2.03433 1.70117 1.14586
351 1 32.0619 10.0044 6.47542 -1.92691 0.484645 -0.394507
76 1 34.5138 9.2308 5.94136 -0.520121 -0.641305 1.24208
348 1 34.273 10.0491 7.60582 1.76878 -3.25725 0.328761
78 1 33.4176 8.267 5.03818 1.90105 3.08379 0.500787
397 1 33.0274 11.0994 7.30234 1.32945 0.00607009 0.270481
123 1 35.6545 10.2385 6.66956 0.193907 -2.55426 0.103685
82 1 36.9921 10.6684 5.69583 -0.752604 0.0758335 0.647222
125 1 36.938 11.1038 7.32186 -0.811274 1.64857 -0.1919
79 1 38.0488 9.33915 5.00561 1.31302 1.43491 -2.4979
85 1 43.0642 10.4312 7.48983 2.53482 0.471578 -0.40594
44 1 43.7452 8.74244 5.54513 -0.281509 -2.33997 0.0554014
86 1 44.0871 9.07657 7.149 1.81351 -0.885774 -0.106536
90 1 44.5965 10.1769 5.69874 -1.42134 -0.155506 -1.88188
83 1 44.6057 11.0425 7.15033 1.35197 -2.11478 -0.0363166
88 2 48.9395 8.32212 7.58394 1.23792 -1.98388 0.237163
89 2 48.5641 8.55023 5.15361 1.51994 1.85598 -2.14933
91 2 49.4085 10.3654 5.64499 -0.473058 0.453684 -1.75941
97 1 9.8157 12.0545 7.73829 -3.13351 -0.376877 -0.272568
99 1 9.80136 12.8899 6.28499 2.8237 2.74575 1.55918
100 1 8.73821 13.6806 5.29403 2.9213 -1.14523 1.91271
104 1 11.4028 12.4387 6.61284 0.158027 -3.42464 0.327845
101 2 13.1985 12.0537 5.75004 1.61869 0.473896 -1.6385
103 2 15.0833 11.9956 4.91306 0.850619 -0.238363 0.3759
108 1 16.8048 14.2987 5.79106 -3.39121 1.22687 -1.11728
105 1 17.2967 13.6916 7.2792 -1.48322 -4.61662 0.981904
106 1 18.437 14.2278 6.17385 0.371189 0.741821 1.19131
66 2 21.8734 11.4549 7.07871 -0.664456 0.703098 1.50938
109 2 21.3934 13.4523 7.17176 2.54029 -0.749047 -1.35176
107 2 19.9855 12.0723 7.82263 -1.22631 -0.32251 -2.62772
113 2 23.6466 12.0127 6.26302 -0.387333 -0.485195 0.0718953
110 2 23.3745 13.9725 6.9317 2.59018 0.363925 -0.300781
118 1 27.2296 14.4042 6.07566 -0.773038 3.72098 3.58865
117 1 26.4659 13.5104 4.87421 0.581512 -2.61491 -0.96247
71 2 29.0142 11.2386 7.34644 -3.90877 1.10072 2.05849
119 2 30.9296 13.4343 7.22307 3.8642 1.17579 1.2597
124 2 32.0004 14.3415 5.7285 0.247069 0.913498 -1.83635
128 2 38.3933 13.54 6.94733 -0.597973 -2.58121 0.283707
6135 2 38.7419 13.4036 4.88026 0.286309 1.1061 -1.73403
126 2 40.2952 14.1832 7.23032 0.0159362 4.06588 -2.68312
132 2 40.7505 13.4289 5.36687 3.10222 0.142489 0.31158
405 1 42.3205 11.8442 7.94639 -4.38524 -3.02607 -5.07407
133 1 45.5242 13.8076 6.14811 -2.05761 -0.747872 -4.39972
131 2 45.6894 14.0838 7.69282 6.51891 -0.447966 3.67857
96 2 7.931 14.6742 6.40903 -0.0850126 1.36751 -1.54108
94 2 8.15481 16.6543 5.881 -1.89788 -0.914293 0.322062
146 2 9.54394 17.2239 7.20781 -1.34257 1.30845 -0.87194
145 2 10.9845 16.6883 5.78796 1.05316 1.36226 1.42448
98 2 12.8517 17.0272 6.48209 -1.75045 5.38831 1.3422
5941 2 12.3732 15.3978 5.0049 2.58463 1.14944 -3.60155
152 2 18.9085 16.4961 7.16315 -0.0611334 -1.57375 1.42387
153 2 19.7405 15.1106 5.56463 -0.22915 0.196984 1.32883
112 2 20.5044 15.2506 7.43005 -0.580474 -4.22645 0.276616
157 2 24.2392 15.0002 5.35047 2.06998 -0.906291 0.712769
162 2 24.4276 16.5626 6.70683 0.81588 -2.59005 1.03238
163 1 28.2972 15.5663 6.62039 -0.19734 -1.03311 -3.98026
161 1 28.1767 16.2945 4.94504 -0.572875 2.31783 0.384406
120 1 29.3391 15.2227 5.39199 -1.53115 1.22453 1.10318
166 1 29.1405 16.9258 7.17281 -2.56519 1.31867 1.55375
165 1 28.903 17.6169 5.67877 -0.398928 2.4006 -0.32081
352 2 32.6762 14.8115 7.58982 0.431407 -2.72118 -0.258185
169 1 33.7646 17.5601 6.46673 0.259265 -1.2055 -3.78285
404 1 36.3781 16.9772 7.40755 -1.43795 -0.0848348 1.66852
174 1 35.4249 17.3893 6.11819 0.52133 -1.68178 -1.68464
173 1 40.4611 16.466 5.35614 -2.10206 3.90053 -1.21056
129 1 41.9274 14.9917 7.47364 -0.48822 3.04673 -5.32094
5969 1 41.841 16.161 6.26106 -1.16182 -1.39733 -3.50343
130 1 43.5052 15.8491 6.09759 -2.57068 -0.142458 1.51977
455 1 43.3816 15.8278 7.76972 0.838406 0.244642 -1.13329
177 1 43.9199 17.4693 6.17206 -0.696272 0.0521892 -0.418481
179 1 43.6302 17.5198 7.86713 -1.8949 0.622403 1.27639
5932 2 46.4076 15.1372 5.61605 2.04903 -1.67964 0.495546
138 2 49.5423 14.5041 6.26433 -4.09049 -1.60877 -2.56731
136 2 47.5949 14.829 7.28101 -2.83679 0.290824 -0.834239
181 1 48.7357 17.5525 5.32271 -10.3228 -5.21158 0.322739
185 2 4.8006 20.3988 7.42404 0.742815 0.682595 -2.01374
188 2 6.82155 20.7134 7.82974 0.0109762 2.20034 -1.32405
150 2 13.1795 19.0748 6.84646 -0.574582 0.698248 -4.62947
191 2 11.3307 19.7532 7.36131 0.711745 2.61169 -5.18779
149 2 15.1192 18.3336 6.85633 -0.366437 -3.66981 3.32216
5946 1 16.4019 19.8579 5.12184 1.40003 -3.59662 4.79618
6147 2 16.55 18.166 5.11393 -4.37129 -1.88471 1.60066
6149 1 19.1509 17.7346 5.70737 -0.912834 2.13988 1.09049
154 2 17.0626 17.7453 7.02832 2.1069 2.00686 1.72012
5995 1 20.6758 18.9756 4.81052 2.2684 -0.750332 2.16152
5954 1 20.3188 18.7242 6.43171 0.0815388 -0.114594 -1.06702
158 1 21.4281 19.7544 7.12562 -4.12027 1.79954 -1.41651
483 1 23.9626 20.4836 7.80617 -0.83586 1.9343 -0.70428
209 2 25.3795 17.9009 7.93084 2.4127 -1.01097 0.743629
211 1 30.7255 17.8456 7.19429 1.68428 0.159422 0.776325
6007 1 30.3687 18.3566 5.62725 1.62314 1.2823 -1.79672
5966 1 32.038 19.151 5.53829 -2.64612 -0.745224 -4.75621
170 1 32.3102 18.3142 6.9408 3.0279 -0.853083 1.67691
215 1 33.7248 18.5357 5.08027 4.33769 -3.49927 -1.70683
6011 1 33.4186 19.6335 6.29026 -0.173222 -1.23972 0.245154
6012 1 35.0612 19.7029 6.5186 -0.224501 -0.173365 2.15267
6157 1 35.3903 18.7804 5.14864 0.439059 -0.612577 -0.824835
723 1 36.0413 18.6094 7.35296 -0.435569 -3.37235 2.66028
178 1 42.2938 17.7537 5.84584 1.94585 4.91028 0.232391
175 1 42.1539 18.2479 7.47584 -2.86001 1.57231 0.572353
6019 1 43.0014 18.8372 4.73015 3.14235 -3.5328 -5.14295
176 1 44.0867 19.1356 6.33993 -0.761047 -1.29723 -0.985551
5978 1 45.6216 18.8267 5.92933 0.0515093 -4.10611 -0.353635
182 2 47.2707 18.3333 5.95778 2.29217 -1.47145 1.92716
225 2 47.548 20.226 5.16901 -4.01016 2.61991 -0.995638
501 2 47.6043 19.0905 7.83323 1.83263 1.02656 2.13758
23508 1 4.96648 22.2374 5.98563 -3.13982 2.00856 -0.30778
186 1 5.48833 23.5403 6.89851 -1.6922 -0.442337 2.07333
192 2 9.97122 22.9686 5.12808 1.61406 -1.44271 -0.367224
465 2 8.74307 21.2523 7.33158 2.72494 1.86245 -1.363
190 2 10.6511 21.5175 6.46408 -0.025257 -0.210917 0.103136
196 2 11.588 23.1319 7.44142 0.949578 2.61221 -2.91447
194 2 13.5143 22.3997 7.58674 -1.07059 1.16266 -2.13142
195 1 14.2023 22.2129 5.90881 5.88453 -0.587798 5.34871
148 1 15.3363 21.1305 5.25474 -1.90114 -0.360735 -6.0447
199 1 21.0006 21.3457 7.23154 -0.388794 1.6737 0.889273
201 1 21.6314 21.6724 5.71039 -0.349389 2.18137 3.65207
204 1 20.9015 23.2056 5.66531 2.55691 0.914499 0.865444
249 1 22.3637 23.9869 6.0582 -0.408203 1.30789 0.736603
198 1 20.7474 23.0171 7.35505 -0.576312 -1.48735 -0.548886
156 1 22.842 21.1284 6.71016 0.288254 0.375178 -0.487343
205 1 23.9958 22.0296 5.51385 3.81192 1.64089 -0.38057
208 1 23.2521 22.759 6.84809 1.62843 1.47396 0.599462
206 1 27.9703 23.7674 5.84332 0.507602 1.78467 0.964154
486 2 31.2707 23.6313 7.1781 0.382767 -1.98718 -0.663537
533 1 29.4853 23.8633 6.58175 3.23269 -1.85364 0.398293
259 2 32.3774 23.5366 5.45684 -0.505634 0.71597 0.317419
224 2 38.6464 22.9246 5.47002 0.30801 -1.60008 -0.276951
265 2 38.8044 24.1201 7.10689 0.388068 0.629136 -0.0736941
269 2 43.3736 22.2814 5.02338 0.974165 0.706961 1.08898
11562 2 42.0603 23.7148 5.67042 -0.301126 0.479979 0.91063
6208 2 43.9504 24.1119 6.2093 -2.00255 0.95836 -0.583128
226 2 47.7235 20.9861 7.06835 0.889195 -1.35715 3.30553
234 1 6.65471 26.6457 6.35103 1.87332 -1.12349 -0.99984
231 1 6.28932 24.9804 7.19846 -2.57578 3.29985 -6.37668
233 1 6.75453 25.127 5.57571 0.0016573 3.88001 -2.56507
462 1 5.20575 26.359 7.22736 3.26662 -1.10336 2.96329
232 1 5.17396 24.6387 5.21847 1.2279 -3.92357 0.707333
237 2 9.96258 24.2603 6.7572 -1.658 -2.03684 -1.53333
238 2 8.58675 25.3424 5.66436 -2.2852 -1.34174 -1.81378
246 2 17.3409 26.9438 7.28265 1.67368 2.22184 1.83912
245 2 18.7295 25.6436 6.49603 -1.90763 1.80737 2.29661
200 2 19.8055 24.6701 5.11729 -1.06828 -3.34114 -1.10423
247 1 21.6165 24.4348 7.51813 2.19254 -0.740187 -0.408614
6049 1 27.6829 25.4146 6.05237 -0.106656 -3.0993 1.24454
6233 1 28.0433 27.0632 6.00835 0.910037 3.29163 -1.44513
531 1 28.9832 25.4393 7.09873 -1.593 -0.20631 1.07564
252 1 29.4823 26.158 5.6379 -1.9485 2.05093 -0.691212
253 1 30.2348 24.7006 5.38074 -4.82471 0.29761 -2.43143
489 2 33.7608 24.7582 6.35166 0.986493 0.554901 0.528766
262 2 34.4554 26.5303 7.57103 -0.198856 -0.617236 -1.55836
261 2 34.5887 26.4247 5.53622 -1.01471 -0.489223 0.577806
540 2 37.29 27.1152 5.68816 -0.551178 -1.25969 1.67047
6245 2 38.8757 25.9694 6.25659 -0.856 1.02196 -1.92147
270 2 40.279 24.7239 5.48478 1.09392 0.801436 -0.920253
6247 2 39.296 27.332 7.7504 -0.170604 -0.757101 2.25309
11818 2 42.2657 26.779 5.74782 -3.00295 0.0679101 -0.7083
271 1 45.5671 24.7959 6.96809 -1.37909 -0.103641 2.66516
274 1 46.2061 26.3425 6.19238 2.30941 3.08292 2.89362
222 1 45.9092 26.8309 7.76244 0.929782 2.06056 -1.3079
548 1 47.0549 25.4619 7.29819 1.83896 -2.08527 -3.76846
272 2 48.8752 25.787 7.54516 -0.936881 -0.18895 2.08596
279 2 5.23944 6.57077 10.7014 1.13134 -1.92654 -0.699176
277 2 5.29277 6.11552 8.72888 -0.508821 -0.982403 -1.42118
51 2 8.3047 7.44279 8.04383 1.36066 0.671579 1.45399
282 2 10.4574 7.54628 10.9968 0.885493 1.94989 1.54379
286 2 13.445 6.36319 8.46343 0.0666774 0.309287 3.03727
285 2 12.1105 7.19296 9.78197 -0.00408797 1.40378 1.74787
288 2 12.876 5.68696 11.0741 -0.046907 -0.458005 -0.968651
289 2 16.1933 6.18217 8.85546 2.11388 -1.21737 -0.372544
287 2 14.6199 5.56893 10.0127 -1.09117 1.35787 1.49124
292 2 16.749 4.73912 10.2033 0.863176 -1.66966 -3.77858
59 1 19.4599 7.5987 8.49576 3.46928 -2.13768 2.28332
296 1 21.5704 6.43027 10.8339 -2.02377 1.83595 -2.71956
293 1 20.8988 7.46726 9.68494 -1.00291 0.862266 0.812152
21 2 23.9024 5.182 7.99373 1.38724 0.451016 1.22508
298 2 28.1852 6.51818 8.52231 0.406549 1.31433 1.41753
300 1 27.3129 5.93007 10.8624 -2.20555 -1.89416 -2.12816
18054 2 28.8598 4.74951 9.29487 0.539975 -1.6842 -1.74384
22 1 29.2868 7.76021 7.99615 1.76816 -2.96509 -1.00085
25 1 30.7962 7.19927 8.48995 -4.07185 4.31704 0.150447
32 2 34.8806 5.25432 8.11458 -2.02197 -1.75397 2.02677
27 2 32.2227 6.2322 8.94027 1.90307 -4.66604 -4.18292
305 2 33.6444 5.0052 9.81481 -2.89669 -3.75411 -1.27644
311 2 38.9836 6.78718 11.0666 1.87709 4.60667 -0.809319
586 2 40.7905 5.07171 9.7676 1.37256 -0.685406 -1.19532
635 2 40.9863 6.9526 10.6507 1.19637 -1.61513 1.07088
313 2 41.0613 7.83262 8.77566 -0.28372 -0.537559 0.185022
35 2 41.4758 5.96748 8.01937 2.76741 0.582187 -2.46987
18098 1 44.1911 5.48249 10.4565 -2.83894 0.0394643 -1.74474
42 1 46.1059 6.83236 8.48502 -0.760012 -3.5614 -0.138672
37 1 44.8701 6.80007 9.64797 0.56656 0.60067 2.59836
314 1 45.539 7.32639 11.1252 2.62762 -2.40194 0.47477
317 1 47.0621 6.69058 10.7752 0.957927 2.72687 0.23227
87 1 47.1386 7.73944 9.48928 -2.09418 -3.12858 1.04413
46 1 48.7379 6.64445 10.7004 0.78716 -2.40262 -0.876789
95 1 5.78091 10.3854 7.97553 -0.407466 -0.158021 0.668171
280 2 6.147 7.99093 9.59796 2.37702 -3.30003 -1.57979
325 2 7.55599 8.43043 11.0764 1.06347 -0.449374 1.24111
326 2 7.68601 10.4941 11.024 0.635372 0.5897 0.517793
327 2 9.14553 8.4303 9.6722 0.206344 0.483986 2.85046
323 2 9.69596 10.2582 10.5515 0.869605 0.385184 1.10581
331 2 13.1197 9.00834 9.8528 1.98678 -1.17668 0.637594
56 2 13.9457 10.8112 9.24857 -1.83072 -0.64311 -1.91027
335 1 18.4428 8.48458 9.52886 0.373047 -1.27453 1.15412
336 1 18.6588 10.0915 9.9322 -0.463886 1.39556 -1.58587
337 1 19.7074 8.23169 10.6121 0.0832643 1.37566 -2.48289
294 1 22.0798 8.0065 11.0398 -0.789808 -2.11648 -0.0106802
63 1 20.7333 8.68507 8.5562 2.50116 1.26238 1.18755
339 1 20.2737 9.6408 9.902 -0.633054 -2.30709 -0.351963
341 2 21.5045 10.9428 10.0792 1.90942 1.19915 -0.727202
67 2 25.1718 8.97408 8.81895 -2.74778 1.24179 2.52569
343 2 24.1135 10.3465 9.95538 -0.421752 -2.42519 2.34837
23 2 26.7948 7.95093 8.02903 -0.754065 -0.684313 0.0676771
347 1 31.7345 9.35823 8.00503 -1.07218 -0.00363996 2.32215
349 1 31.363 8.5331 9.43584 4.22013 2.12535 -4.57165
627 1 31.2342 8.17912 11.094 -0.332271 -1.0463 2.47993
354 1 32.0194 9.92752 10.0893 0.125694 1.4875 2.45475
75 1 33.0866 9.9828 8.77893 0.467655 -4.10407 -0.252489
356 2 39.8518 9.64791 9.26261 -2.82233 0.264188 0.0195141
357 2 38.9208 8.87888 10.9732 1.33731 -4.03622 0.549913
359 2 41.4488 9.7006 8.05254 -1.88174 1.42035 -1.00708
316 1 44.8489 8.37136 8.99987 1.75861 0.968693 0.121304
39 1 45.1999 9.83582 8.2013 -0.134482 1.98433 -0.753701
590 1 45.9446 8.70707 10.2094 -3.83 0.600265 -2.08481
363 1 46.5597 9.92471 9.23429 1.21553 -0.366961 -1.92427
367 1 48.5405 8.23149 10.2868 -3.97231 -5.06372 2.69122
368 1 48.0558 9.84108 10.1184 -1.13367 -1.69839 -1.13359
364 2 49.2182 10.2473 8.77461 -0.157998 0.513836 -1.32918
324 1 6.0448 11.6731 9.01123 -2.19203 2.41167 -1.21319
369 2 7.20334 12.364 10.2659 1.69259 1.5019 -0.10254
371 2 6.65842 14.3358 10.0719 -1.17176 3.01163 -0.742605
373 1 9.60342 11.3713 9.25504 -3.80001 0.0794835 -1.85216
52 1 9.86314 12.5166 10.4645 0.766668 1.1399 0.308308
419 1 10.3099 13.8709 9.49892 0.280809 -2.09597 0.0721514
374 1 11.0643 13.1724 8.10787 -0.839604 -0.257084 -0.170895
375 1 11.8146 13.9157 10.2453 2.32168 0.493511 -1.5452
332 1 15.1489 13.0694 9.71587 -1.96304 -3.79398 2.08941
378 1 16.0969 13.3045 8.37968 -2.82965 1.21843 3.47782
381 1 16.2294 14.3762 9.68242 2.85289 0.0589997 0.435848
60 2 18.5045 13.1394 8.72212 1.2565 -1.4891 1.6339
383 2 19.1272 11.7638 10.4122 -0.171206 1.28411 0.64599
385 2 20.2715 13.3218 9.68845 -1.37006 -0.585738 -2.2175
387 2 23.1611 12.1162 10.4036 -1.79785 -0.492727 0.392286
389 2 25.0257 12.865 10.9064 1.32092 -1.40698 2.54061
344 2 25.6508 11.5972 9.36478 0.287625 -0.89801 -0.581995
68 1 27.267 11.6471 9.63349 -0.539896 -1.31597 1.40384
393 2 28.4002 12.604 10.4626 2.01509 -0.876549 -3.75117
390 2 26.7852 13.9207 10.5703 3.63386 -0.967004 -0.8066
72 2 29.5137 12.7796 8.66809 0.716076 2.93635 1.51443
394 2 31.0625 13.0721 9.99506 -2.7264 1.34343 0.452401
121 2 32.1688 12.2914 8.48476 -0.987217 1.12909 1.58829
399 2 33.1162 13.8615 9.40208 -2.8881 -0.677636 0.61094
358 1 39.0193 11.3148 9.40082 -0.839072 0.562903 1.495
401 1 38.2242 11.9262 8.06686 2.66079 -1.31394 1.16932
677 1 39.7464 11.6497 10.8732 2.19097 -0.755929 1.27489
362 1 42.3787 13.4509 8.00884 2.06033 1.42233 -0.520961
360 2 43.2026 13.4429 9.55649 2.24753 -1.12855 1.51875
84 2 44.8393 12.3546 8.42265 -4.03765 1.59188 -0.372014
407 2 45.1147 13.2502 10.2274 -2.31287 -2.66708 -0.180199
361 1 46.4115 11.4554 9.94437 2.45777 2.20828 -1.36437
366 1 46.8245 12.9054 10.6599 -1.01945 -0.527736 2.03155
412 1 49.9356 13.037 10.5842 -1.61941 2.47619 0.641477
365 1 47.9218 11.4109 10.653 1.08036 3.43719 -1.69254
415 2 7.03184 15.0605 8.2196 -2.11491 -0.581042 -0.172681
139 2 6.13658 16.4284 9.43999 -3.61994 -2.83544 0.56265
143 1 10.6959 15.3677 8.83273 -0.158953 0.278828 -0.229161
423 1 12.0924 14.4277 8.642 -1.98341 0.136237 0.670884
421 1 13.028 15.8013 8.80071 0.746221 1.28198 -0.444456
144 1 11.6512 16.7372 9.02158 -4.71381 0.35856 -3.52275
147 2 14.1073 17.0358 8.10494 1.09122 -2.1868 2.33919
384 1 16.3979 15.5273 10.8875 1.03866 2.2239 -2.7534
151 2 18.1038 17.4274 8.72538 -1.57149 0.416584 -0.56439
382 2 21.5906 14.9043 9.2079 3.21583 1.71453 1.25499
386 1 22.2879 15.5536 10.9439 1.3492 -4.88995 0.434843
155 2 23.0781 15.7425 8.01365 -1.3177 0.958304 2.83773
114 1 25.4761 15.0416 10.4307 -3.82312 0.293616 -0.233368
433 1 23.934 15.4771 10.8433 -1.15332 6.99151 0.379415
159 1 26.1373 15.8108 9.15883 1.91776 -1.38356 1.97648
160 1 27.5922 16.5219 9.36775 -2.93352 -1.49386 0.102075
485 1 29.0999 16.9659 9.94632 -1.50751 -0.465889 -0.198806
164 1 30.4014 17.4084 10.8866 -0.81406 3.38487 -0.201125
440 1 29.9081 17.3701 8.55464 -1.05585 0.438337 1.67609
444 2 33.9092 16.4111 8.02877 -2.46982 0.208335 0.183334
167 2 34.4598 15.6304 9.81528 -0.995204 -1.38768 -0.371943
403 2 37.6702 16.1941 10.7988 0.116694 0.0101824 0.113664
402 2 36.9636 16.3287 8.85155 1.0466 3.23069 -1.73738
447 2 35.3306 17.4003 9.44047 -1.39243 -0.659643 1.30034
171 2 38.5206 15.0838 8.30725 1.99401 1.75431 2.49572
408 2 39.5186 15.9914 9.90698 -3.09142 -1.47321 -0.254356
406 2 43.5109 15.4679 9.6109 2.0575 -1.52323 -1.04579
453 2 41.5823 16.0818 10.0405 -1.91984 0.611285 0.0349251
409 2 45.5281 15.0828 9.42896 0.405778 0.721197 6.22183
134 2 49.353 15.6176 7.95479 -2.35673 2.12145 -3.16187
410 2 48.8606 16.6513 9.66535 -0.438404 0.646499 -3.23094
23463 1 5.28479 17.9348 10.0141 2.6569 -1.73362 -1.10716
189 1 4.89495 19.5336 9.74578 -1.96455 2.32237 -0.485248
461 2 7.89213 20.0849 9.49061 3.70351 -1.12208 -5.8979
420 2 9.54969 19.6584 8.35537 -2.90869 -0.0853056 2.11762
142 2 10.3599 17.8363 8.97604 2.11698 -0.203057 1.1826
193 2 12.7976 20.4876 8.59332 1.0401 -1.717 -1.60808
102 2 15.0937 17.8583 9.75097 1.08073 -0.478674 -2.7639
471 2 16.374 20.6461 10.1531 2.53013 -0.620808 0.456955
425 2 14.6718 19.805 10.8988 1.11603 0.983024 0.315726
424 2 17.0303 18.6841 9.93893 0.822043 -0.294529 -2.78135
431 1 21.481 19.713 8.79447 -3.82524 -1.57946 -1.40181
477 2 20.0003 20.4835 10.5477 -0.475325 -1.79715 1.9281
435 1 23.147 19.5281 8.94864 -1.05941 0.499942 -0.428549
432 2 23.3655 17.7695 8.31422 -1.76634 -0.202086 -0.590652
438 1 23.7375 20.5864 10.1581 -1.96394 1.67902 -0.658473
436 2 26.9284 18.0779 9.26394 -1.36715 3.04358 -0.994066
450 2 36.4345 19.125 9.25164 -0.186344 -0.50584 0.479004
724 2 39.1436 19.9887 10.9318 -0.475258 0.575706 -0.569574
448 1 41.297 20.2722 8.84859 -0.407461 2.2413 -0.49166
221 1 42.7892 19.9682 8.21964 -0.455408 -0.0278927 -0.977726
451 1 41.7125 18.6918 9.01821 0.656462 -0.220638 0.519662
728 1 42.572 19.1118 10.3979 0.600573 -0.326005 -1.92499
498 1 43.438 20.3764 9.7085 -1.79647 4.88848 0.808724
223 1 44.2151 19.1167 8.02898 -4.07126 0.878467 -1.20509
497 1 44.7698 19.3999 9.59761 -0.618081 -0.503481 -2.52493
686 2 47.6903 17.7167 10.9915 -0.564046 2.31204 0.385193
180 2 47.8481 19.4169 9.80856 -2.23104 -1.39008 -1.04783
456 2 49.4611 18.4996 8.99479 2.24101 -0.217916 1.40017
738 2 6.99007 21.6916 10.8043 2.01366 1.92025 -4.27418
422 2 8.12012 22.063 9.13569 2.59926 -3.46676 4.12695
469 1 12.2989 20.9614 10.1945 1.03488 3.52323 -1.13487
472 1 12.2498 22.6367 10.1974 -2.0535 -2.40675 -2.81443
515 1 11.5949 24.0542 10.7459 -3.21276 -0.638472 -0.577247
470 2 14.4975 21.4734 9.1052 0.566314 -1.4588 -3.06201
197 2 15.7445 22.5726 10.2606 -4.08591 -0.905731 -1.34505
475 2 18.1648 21.1213 11.1014 -0.492223 0.514285 2.24617
428 1 20.5863 21.1171 8.87278 1.49733 1.09953 -0.747804
473 1 20.6253 22.7999 9.01476 -1.30774 -0.423229 -0.338179
523 1 22.0309 23.4617 9.65604 0.88249 0.773133 -0.707232
482 1 24.8706 21.1431 9.02812 0.806253 0.258864 0.190975
478 1 23.0545 22.1215 9.85163 -0.54778 -0.561516 -0.971581
527 1 23.8244 22.2478 8.34804 -0.101054 -0.91259 -0.197645
481 1 25.5866 21.8898 10.3623 -0.734069 -0.592049 -1.64203
525 1 24.336 23.0313 10.4844 -2.54482 1.15921 -0.423222
529 2 27.8279 23.8676 10.4226 -0.528983 0.283496 -0.694781
492 2 30.6368 23.3792 9.14075 1.4308 0.413354 0.00316905
488 2 29.5672 22.8074 10.8024 -0.910173 -0.00499629 4.31536
535 2 33.1566 23.8121 8.03784 -4.50567 -1.14701 -0.64596
490 2 32.5456 22.7256 9.63933 -1.1343 0.0817734 -0.27501
172 2 37.3337 20.9744 9.1386 2.58264 1.1612 -0.705672
218 2 38.286 22.5817 8.35049 -0.141028 -1.72275 -1.99408
217 2 39.4529 21.5269 9.60031 -0.769763 1.67306 0.376883
493 1 41.3091 21.6979 9.74109 0.987974 -2.73691 -0.39161
452 1 42.6835 21.5391 10.6704 -0.415256 3.14707 -1.02557
494 1 41.7121 23.0961 10.5503 -2.77241 2.67373 1.40348
500 2 45.6816 23.4341 9.7638 -1.68431 0.652896 -1.77418
545 2 46.5177 21.6363 10.3157 -0.300875 -1.19903 -1.60102
502 2 48.118 21.3278 9.04372 -0.677757 1.37614 -3.68717
505 2 49.581 21.5558 10.4463 -0.804331 -2.62724 2.255
510 2 4.98888 26.9324 10.235 2.33691 -3.16223 0.297162
235 2 10.3278 25.5131 8.33926 2.08342 -1.127 -1.37182
513 1 10.4755 25.2994 10.9323 1.22927 5.13396 -0.0908772
511 1 10.7831 26.4451 9.74741 0.847067 3.34063 -2.12782
239 2 12.2347 24.8002 8.48579 -0.306726 -0.141451 0.0820664
236 1 12.5708 25.3074 10.1093 0.0842649 -0.81836 1.93615
512 1 12.044 26.7453 10.8497 -0.0120861 -0.125406 -3.22482
243 2 18.5424 25.9048 8.53829 -0.900277 -1.00249 -1.84381
519 1 17.7358 26.4792 10.0969 0.106362 3.5359 1.37316
517 1 17.1363 25.1291 10.8291 3.2985 0.313217 -4.24069
474 1 20.9954 24.6145 9.0577 -0.524834 0.459196 0.980965
521 2 20.4927 26.2412 8.98142 0.605785 1.14392 -0.0296541
6733 2 22.4216 26.6563 9.44181 0.247668 0.945967 -1.39392
803 1 23.1347 24.3925 10.5483 -0.420948 -1.16262 1.79019
530 2 27.0459 26.9237 10.6189 2.28416 0.346225 -2.46444
534 2 28.2613 25.0838 8.77866 -1.00851 -0.437135 -0.944436
6235 2 27.4884 26.9833 8.62476 0.510391 0.153967 -0.375013
528 2 28.9944 26.3566 10.2006 -0.116364 1.33314 -0.422071
6488 2 30.7417 25.2121 10.0864 -2.94044 -1.99917 0.291225
213 2 33.7784 25.4277 9.16069 1.22417 0.528637 -2.32088
536 2 32.5943 24.5292 10.597 0.91215 -0.55963 -0.625985
541 1 43.8542 25.2577 10.5997 -0.0029581 -1.02179 1.75099
543 1 44.2427 24.3117 9.24983 1.40183 -1.61677 -0.237115
267 1 45.0323 25.5083 8.39229 3.77094 0.342712 0.846924
264 1 44.8678 26.3943 9.84196 -1.68316 1.15813 -1.01572
550 2 47.4048 24.1522 10.633 -1.28846 -1.9704 -0.57675
551 2 49.7578 26.0232 9.38145 0.910902 2.30019 2.04738
555 1 4.78934 5.01337 14.3278 -2.6571 0.0986241 1.94173
554 2 5.53032 6.94103 12.6753 0.0225908 -0.274222 0.729069
18082 1 9.90075 5.17532 12.2429 -0.583461 1.64609 -0.596521
283 2 11.3155 6.23923 12.3443 -0.997855 -1.99542 -0.359816
604 2 12.6993 7.67532 12.9322 -1.38621 1.71464 1.39457
557 1 16.3068 4.80014 12.6166 -0.199299 0.385217 -1.24134
607 2 14.2229 7.09644 11.6664 -1.0053 1.80133 -1.1047
565 1 17.2109 5.73162 11.5934 2.18688 -0.375578 2.72395
566 2 18.1904 6.85939 12.5335 -1.46729 1.59261 0.153212
568 2 19.0811 5.10745 13.157 0.217869 -1.75656 2.56397
567 2 20.4131 6.41823 13.9765 -1.65629 1.71416 -2.82437
569 1 21.0252 6.60385 12.4204 0.207067 -0.00138233 3.1382
573 1 27.6332 7.33364 11.6828 0.33602 -3.47915 -1.11532
345 1 28.8116 7.80976 12.9788 0.773988 -0.212877 -1.16003
299 1 28.7982 5.93595 11.5786 0.653084 -4.37691 -2.44425
308 1 31.4793 6.52561 11.2635 -4.45501 -2.28988 -0.524964
574 1 29.9321 6.57299 12.6404 0.335372 6.35928 3.10241
579 1 31.3615 7.72309 12.6991 -4.73332 -0.486573 1.57192
577 1 30.7584 7.01284 14.0131 1.7787 1.72181 5.43402
578 1 32.6592 6.69522 12.4054 -1.76593 -0.800326 4.6525
581 1 33.9794 6.9847 13.4595 -1.11591 0.983443 -2.51297
858 1 35.5106 7.63697 13.7816 0.402759 5.98439 4.44543
582 1 35.8796 6.04728 14.2077 0.118216 -0.137416 2.1313
592 2 39.5119 7.08065 13.0399 -0.932012 -1.49311 -0.937737
862 2 38.9164 4.95168 13.4099 -1.36222 -0.72964 -0.384645
587 2 39.5331 4.80274 11.386 -0.920971 -6.179 3.37757
865 2 40.4644 5.8665 14.3336 -0.124436 0.938421 1.12797
18072 1 44.7119 5.01535 11.9808 1.19818 0.983728 -1.3488
322 1 45.5629 6.37665 12.51 0.563801 5.52041 -0.122238
597 1 45.7164 5.97938 14.1275 -0.440139 -4.35025 1.41581
18329 1 47.0335 4.9952 13.637 0.0844612 -0.225914 1.94734
319 1 47.0848 5.72109 12.1294 0.998901 -1.15373 0.735688
320 1 48.4911 5.15027 11.4045 1.75105 -3.04467 -1.10461
599 2 6.77768 8.57085 13.0163 -1.43127 0.133282 2.05555
603 2 7.44933 10.5017 13.0756 -0.516075 1.37997 -0.475917
328 2 10.3997 9.23514 12.2102 -0.000501678 -2.14515 0.292285
329 2 12.3842 9.42167 11.7057 0.79719 0.305842 1.87214
610 2 11.1084 8.43033 13.9548 1.53464 0.247086 1.7324
653 1 13.3326 10.8278 14.3825 2.12376 -0.0721746 -0.73722
333 2 14.5798 9.11389 11.266 0.19427 2.80613 -1.28225
338 2 14.4799 11.1677 11.2334 0.0138344 0.0530508 1.08393
611 2 19.2946 8.4835 13.218 2.31529 1.49375 1.70056
291 1 20.7119 8.18806 12.0074 -0.736567 2.65645 -0.518354
615 2 20.4971 9.99459 13.954 -2.41667 1.92432 0.632969
295 2 22.642 9.68722 11.2576 3.92966 1.67145 -0.258276
617 2 25.178 9.68724 14.2461 1.19024 2.02158 -0.579562
619 1 27.6697 8.83433 12.3787 -0.52076 -3.92511 1.84441
665 2 26.2638 11.0199 13.0729 0.690838 -0.357488 -1.78625
620 2 28.2266 10.3526 13.056 0.978523 0.747703 -0.625412
625 1 30.8493 9.82206 11.2944 0.341893 1.19653 -0.326323
350 2 29.4661 11.0839 11.5133 -0.613096 1.28707 -0.106333
575 1 29.6567 8.21728 14.3409 1.18622 1.04462 0.854395
623 2 29.5767 11.0427 14.4175 1.78837 1.20591 2.02631
585 1 36.4315 8.77471 12.9445 1.22548 2.39627 -1.24253
631 2 37.216 9.76716 11.7733 0.900661 -1.90247 1.50791
589 2 40.6868 8.45567 12.0657 -0.0339197 0.066948 -1.59268
679 1 40.9823 10.8451 11.6464 -4.84618 -4.72216 1.94933
681 1 41.988 9.66568 12.222 0.29621 3.16289 0.393232
638 1 41.8081 10.0214 13.8746 3.12177 -0.705439 -0.697522
591 1 42.5363 8.531 14.3448 -1.28482 0.846619 -0.720938
23818 1 49.9781 9.94454 13.8475 0.272332 -2.88879 0.788403
644 1 48.3443 9.96551 13.4632 -1.99541 1.53569 2.89283
595 1 49.0691 8.52663 13.9224 -1.12318 -3.22187 -1.0298
649 2 7.72476 12.4084 13.7919 1.02205 -1.16085 -0.266787
372 1 8.47323 12.9127 11.3211 -4.57599 0.0738886 0.645486
376 2 9.18385 13.4849 12.8235 -4.09656 -2.13992 3.18372
330 1 10.7664 13.3581 11.636 -0.173169 1.61637 0.383504
377 1 12.3962 13.6 11.7583 1.70375 -1.81944 1.18939
608 1 13.5585 12.3362 13.6851 0.275385 0.251225 1.46444
379 1 14.522 12.9645 11.2446 -3.65766 -0.379101 1.20624
334 1 13.8215 13.6131 12.6219 -1.24197 -1.09098 0.0208367
612 1 14.6959 11.2299 13.1493 -2.28369 0.733921 0.826332
660 1 14.9509 14.3108 13.6742 -0.437207 1.18484 3.22373
616 1 20.0249 11.4495 13.3441 -1.89666 0.781804 -0.330321
342 2 20.5962 11.5247 11.8134 -0.163741 0.396177 -4.11975
340 2 22.6156 11.5391 12.3208 0.551063 1.94436 -2.3495
346 2 24.5387 12.1112 12.7973 -1.10892 1.85728 0.812618
624 2 30.0978 12.454 12.9603 2.6467 0.317601 -0.340109
395 2 29.7907 13.8497 11.4458 0.916177 1.06562 -0.495369
630 1 31.0556 13.4416 14.1049 -2.2819 -1.01434 1.95903
398 2 33.8656 14.3183 11.2412 1.30771 2.53915 3.0539
353 2 35.2058 13.2624 12.4054 -1.77441 0.54189 0.517695
628 2 36.034 11.3948 12.0792 0.22162 3.23173 2.26359
675 2 36.5549 12.4962 13.7635 -1.32257 1.56941 0.418497
632 1 40.3359 12.468 12.2331 -2.89964 0.997938 -1.79086
633 1 40.9508 11.309 13.2389 3.34494 -0.170608 0.671434
684 2 41.0179 13.9296 13.4029 -0.0256974 0.0707297 0.276962
685 1 48.3747 12.8845 11.3061 1.66424 -1.05925 0.727061
641 1 48.3856 11.6487 13.5525 1.13249 0.186197 2.0363
643 1 49.3362 12.7145 12.7224 1.00425 -4.04918 0.0592316
370 2 6.42884 15.9035 11.3947 1.30635 -0.476396 0.436972
646 2 6.6583 15.7019 13.402 -0.812217 1.0352 -1.18061
417 2 6.50167 17.6487 12.8314 -1.83225 -0.254109 0.818577
695 2 9.1149 14.8374 14.4143 1.77363 1.77524 -0.403685
656 1 13.5067 15.0207 14.2478 -4.8701 1.20222 1.97619
654 2 13.7849 16.6033 13.1672 0.181592 -1.71901 -1.25111
701 1 15.5425 16.983 13.4953 0.239031 -3.49642 0.445634